841
Lattice="      34.3999999999999986       0.0000000000000000       0.0000000000000000       0.0000000000000000      40.0000000000000000       0.0000000000000000       0.0000000000000000       0.0000000000000000      40.0000000000000000" Properties=species:S:1:pos:R:3:charge:R:1:kinetic_energy:R:1
H   7.6318692025538638E-03   2.8905742607623225E+01   2.4011331280940425E+01   6.0448877754122554E-02   5.2470306086900934E-07
O   1.1854361957691241E-01   3.0871650727402482E+01   2.1562141361145770E+01  -7.0607452927512071E-01   7.5921904663107928E-05
H   9.7572211419562932E-02   3.1396786098370089E+01   2.0714481651274966E+01   4.1657705586794858E-01   4.3894932048203940E-05
H   5.2724952793371360E-01   3.0581141254357576E+01   2.4378234278404655E+01   6.5606927795291758E-02   1.1386929368067663E-06
C   8.5389777702959435E-01   2.9560337470449060E+01   2.4201071304818708E+01   2.7345284197194797E-01   5.8479489910655238E-06
H   1.3570979962099869E+00   3.2592308156728173E+01   2.3205551565220826E+01   4.2430015549740985E-01   2.3928620181892622E-05
H   1.3834559368618733E+00   2.9134891951799943E+01   2.6245911051944482E+01   6.3801697331983265E-02   9.6237925889376251E-07
O   1.6543696039648346E+00   2.9547242505165951E+01   2.2945510387232666E+01  -7.3632330888672204E-01   1.4557288012138573E-05
P   1.7281527716581302E+00   3.0918314717791340E+01   2.1971286018124356E+01   1.4723206539534868E+00   1.0492232200470041E-04
H   1.7727702608615792E+00   2.6860134926233712E+01   2.1877664381321811E+01   5.0117627734587944E-02   1.2939554775915104E-05
C   1.7938440450792379E+00   2.9067822377736825E+01   2.5241144429445868E+01   3.2396780040287609E-01   1.2052836720587811E-05
H   1.8069559965933537E+00   3.2157908837763991E+01   2.1019266831505522E+01  -2.7124055356204790E-01   3.4673952577346364E-06
O   1.9505575903812251E+00   2.7588990367193034E+01   2.4994695773059089E+01  -8.0773063802596923E-01   1.4057974848832137E-05
O   2.1789022878928725E+00   3.2029996489457091E+01   2.3126849123356710E+01  -7.1097108579687429E-01   1.1616570609364163E-04
H   2.2525638013772631E+00   3.0327739063428190E+01   2.0002578864856716E+01   4.2271423346678194E-01   2.8292359903401521E-05
H   2.3068263268067013E+00   2.4710491616768312E+01   2.0399549118059781E+01   4.4435544294801677E-02   2.6349549181860990E-06
H   2.4027538692671553E+00   2.0924967297911429E+01   2.3293401853504626E+01   7.1471918552329705E-02   3.6708101481612489E-05
H   2.6243921573768465E+00   2.7775661536226078E+01   1.9656742013458690E+01   6.4209332637993333E-02   2.9551144093235327E-07
H   2.7101555979271312E+00   1.5005650241756959E+01   2.4214051805378244E+01   7.2753361298069086E-02   1.0025265057605651E-06
O   2.7700860546367307E+00   3.0242896169819836E+01   2.0852714912621849E+01  -7.1089681181606412E-01   7.0337544328874998E-05
H   2.7996983786467462E+00   1.9127251009034662E+01   2.1474457140445843E+01   5.7193654190040077E-02   8.4511172466055063E-07
C   2.8440324123761638E+00   2.7029201718822730E+01   2.2004608507782081E+01   1.3520430243841330E-01   2.7489362993285770E-05
H   3.0423847089656677E+00   2.8096086454318989E+01   2.2039753095679202E+01   6.3345782493743563E-02   5.4637805313140746E-06
H   3.0329820487568915E+00   2.6281154230206401E+01   1.8837926996211763E+01   6.4553354832578513E-02   6.5273203218398313E-07
N   3.1471643714008506E+00   2.4284909471036716E+01   2.2307507085305001E+01  -7.2011100232937508E-01   8.3702910210142452E-05
H   3.1907389095967167E+00   3.0616944447165505E+01   2.4610216983854073E+01   4.6547281207829583E-02   6.3281270940491441E-07
C   3.1800212928784202E+00   2.9636115728169919E+01   2.5090178117926779E+01   3.6498869600659178E-01   3.8242938549246612E-05
C   3.2424769841541941E+00   2.4897381515574530E+01   2.0919139618742705E+01   5.3185036630704285E-01   2.6015369506189654E-05
N   3.2251763332042112E+00   2.6444520059232865E+01   2.3355949796017686E+01  -7.1152715182277593E-01   2.9367894002758129E-03
O   3.2247100630055363E+00   2.4360640402140827E+01   2.4658725546567197E+01  -8.2787637963485228E-01   5.5619651061976506E-02
C   3.3551523062743778E+00   2.7297923137098881E+01   2.4558609658142071E+01   5.6211990208174800E-01   1.3187592846548485E-05
H   3.3696510033576117E+00   2.7043368558755454E+01   2.7565696859210959E+01   5.9311498345639757E-02   2.3297972500212552E-07
C   3.3831009014899442E+00   2.7004192008443102E+01   1.9567713285965318E+01  -1.9878617114457686E-01   2.3130173935706316E-07
C   3.4331800535303980E+00   2.0890288930312618E+01   2.3598274061100891E+01   2.8119455272762295E-01   4.2178220409374334E-05
H   3.6046969079156379E+00   2.3309712595022347E+01   2.2278281058334443E+01   2.8542409921998324E-01   2.1956358141161002E-05
H   4.7986983832142993E+00   2.5035156098182064E+01   2.3542920669476018E+01   5.9110968622347548E-02   4.2279562886248669E+00
H   3.4513578357554620E+00   1.4819983865154839E+01   2.2633122426354902E+01   6.8419747351767368E-02   9.3495687289897659E-07
H   3.6014163293291093E+00   2.1515695015414174E+01   2.4470390591928535E+01   6.3547328148997329E-02   2.1717758056836804E-05
H   3.4953135646083449E+00   1.3324878102701852E+01   2.5617820404159129E+01   4.0648235777245023E-01   1.6717717087168893E-05
N   3.5566577867603981E+00   2.1191694223067699E+01   2.0051548101068079E+01  -7.5201009233522065E-01   1.6830669909127167E-05
C   3.6543274352471578E+00   1.5052122867521383E+01   2.3678906444320681E+01  -1.1707890163942913E-01   8.8563679337718080E-07
C   3.6456197549751534E+00   2.6335992678120462E+01   2.0933812591825255E+01  -1.0947859634310220E-02   7.6589317182418238E-07
H   3.6504757706221027E+00   1.6234435845709275E+01   2.0894396352712064E+01   5.6528498550847850E-02   1.8675210473175729E-06
O   3.5842396484044947E+00   2.9925066372608743E+01   2.6466508107711849E+01  -6.6891535619002340E-01   1.4941742612827074E-04
C   3.7076354884315292E+00   2.5056680583912673E+01   2.3384714775236919E+01   7.4183093425537727E-01   1.4260565490132290E-01
H   3.6917646022792638E+00   2.3469059456037996E+01   2.4581744578224448E+01   4.0913572471272408E-01   7.2190765590878407E-03
H   3.7742760255372629E+00   2.6683938732629152E+01   2.5352918866384513E+01   5.1289752438228642E-02   1.8660299835276658E-06
H   3.8656612898711740E+00   2.0593730506610722E+01   1.9246061960842155E+01   2.7181134547290031E-01   9.9052983564413806E-07
H   3.9384806583797727E+00   2.3160374675072664E+01   2.0415517369049123E+01   4.0971253385226791E-01   1.1674731142380873E-05
C   3.8866010839042886E+00   1.9231889083919032E+01   2.1501147943989750E+01   1.7742401477022351E-01   1.6374766088084079E-05
N   3.9124761359904046E+00   1.9468000669736803E+01   2.3966832717031203E+01  -6.6791109042159746E-01   1.3435036665318670E-05
H   4.0876028170873537E+00   2.2055379362973394E+01   1.9793337489941504E+01   2.8002892973882121E-01   1.3852005315308559E-05
N   3.9414671561153374E+00   1.7312737427648759E+01   2.2715056757071935E+01  -6.6457713895927562E-01   1.8361442709058316E-05
C   4.0172114576651667E+00   2.8622535684461141E+01   2.4339009093943133E+01  -1.0577572518295586E-01   7.5245193758322001E-07
H   4.0097306364594258E+00   2.8908812539637214E+01   2.3289494326386183E+01   7.3069847179834113E-02   4.2517708907501414E-06
H   4.0816355175153589E+00   1.6920889700557641E+01   2.4754048821386011E+01   4.6114244076674193E-02   1.0249300470776055E-06
N   4.0838023806264721E+00   2.1523796704146342E+01   2.2412812600536199E+01  -6.8953302262987393E-01   4.7589600008879273E-05
H   4.1252416018838201E+00   2.7991603674511211E+01   2.8892121194930994E+01   6.5236990180585819E-02   1.2995348148756244E-06
H   5.0619066364854435E+00   3.1483803425925441E+01   2.6653363424055097E+01  -5.6087128734822000E-01   1.4223243674415912E-03
O   4.2284625359840007E+00   2.4106364532277645E+01   2.0219642723429793E+01  -7.8457312796965795E-01   1.0410720367348423E-05
H   4.2839477566447597E+00   2.7466856152998965E+01   1.9178113548708005E+01   6.5892631682342051E-02   4.6062839398196533E-08
C   4.3397887478156250E+00   2.0601357436448268E+01   2.1207918542953976E+01   3.9044121557427891E-01   1.5044433332567175E-05
C   4.2974192922457695E+00   2.7305243443091562E+01   2.8067619676679605E+01   2.7916731984518250E-01   1.7042299014939962E-05
C   4.2983585031045175E+00   1.6399518247517772E+01   2.3823566187666042E+01   5.3818291396992946E-01   1.1119896131695787E-05
O   4.3646062677907658E+00   1.3817753135167113E+01   2.5650623002611290E+01  -7.8495605657820722E-01   1.3963373428234061E-05
C   4.3968685859341710E+00   1.6901126433126162E+01   2.1317710456461253E+01   2.9157095079617257E-01   1.6114470898743588E-05
N   4.4260997428709059E+00   1.8192912142122712E+01   2.0494576087862121E+01  -7.0351221954772036E-01   1.6184991760663014E-05
C   4.4601048006389270E+00   1.8738052447883867E+01   2.2775488680413165E+01   3.9201163461692623E-01   1.0370890928746648E-05
H   4.7305279327745886E+00   1.9619492498206633E+01   2.4605144420664949E+01   2.7260712029500922E-01   1.3528688884028158E-05
H   4.6435497345150223E+00   1.3098270407133823E+01   2.3754486081455575E+01   4.7435240133494871E-02   5.5606282722919685E-07
C   4.6754191758466472E+00   1.4081944520302239E+01   2.4226160377250451E+01   3.3715182331184135E-01   1.2759131758255920E-05
H   4.6957732699924293E+00   2.5501732756481445E+01   2.9202116967960286E+01   6.6292085315989735E-02   5.8167685971702323E-07
H   4.7086964629820978E+00   2.6409100551654596E+01   2.1178691331419390E+01   5.4532108184387029E-02   8.3390174571969320E-06
H   5.0430982329218423E+00   2.1828144767563966E+01   2.2716312300380554E+01   2.7667333304379760E-01   1.1948010888814483E-05
H   5.0622184086117992E+00   2.8563766542915459E+01   2.4630886169873989E+01   8.3163668072112285E-02   8.9850671369952256E-06
O   5.1238198298695723E+00   2.8000643620870488E+01   2.7051353657481915E+01  -6.8748748367786039E-01   1.7710031399078333E-05
P   5.1519564127146174E+00   2.9660249086569873E+01   2.6921396298858799E+01   1.5479578876902345E+00   6.2474804885805573E-05
C   5.1575977844078436E+00   2.6151096980016316E+01   2.8462402860070554E+01   3.2567390832303200E-01   2.0553067448435337E-05
H   4.3415978924652023E+00   1.3209466029532093E+01   2.0923457322309751E+01  -4.4465956192979461E-01   1.2964197591403667E-03
O   5.3082195799035299E+00   2.5294275468916453E+01   2.7221448657159470E+01  -7.9634554205926023E-01   9.2406259188374830E-06
H   5.4106126111439794E+00   2.0678565407680871E+01   2.1002036819961020E+01   5.2741247499517918E-02   6.4732064299532211E-07
H   5.3916801027916739E+00   1.6464527040820457E+01   2.1334910488493001E+01   6.3450792322810479E-02   4.1304354027694250E-06
O   5.3983185829166400E+00   1.3420344679433187E+01   1.9066034544271812E+01  -6.9743626808389081E-01   1.6249720826775612E-05
H   5.4661304904753267E+00   1.8420136000480451E+01   2.0430962910693744E+01   2.6575869092297066E-01   2.0371619560886613E-06
O   5.4649342436570700E+00   3.0224314822784489E+01   2.8435077644501760E+01  -6.3649803376556502E-01   5.6674306257038006E-05
H   5.4812675058482636E+00   2.3915829853767391E+01   2.4747972204415841E+01   5.3190241464142973E-02   3.4615791793541153E-04
H   5.5531204913232637E+00   1.8749749557927991E+01   2.2813504516147809E+01   4.9568943364093343E-02   2.6884910518800753E-06
H   5.6540934172271955E+00   2.3553299298619383E+01   2.2073256604175803E+01   5.7321519944207422E-02   7.1635286884305265E-06
H   5.6820070760802022E+00   2.5886972749631742E+01   2.3038300766949252E+01   2.8627919895607112E-01   2.3688147507865652E-02
O   5.7709177548794237E+00   1.6177917924656612E+01   2.3820479909671022E+01  -7.9088372255088668E-01   6.9676887507120069E-06
H   5.7622518959164211E+00   2.1448689228209076E+01   2.4124886877007224E+01   6.4320417109603234E-02   1.7094927202968740E-07
H   5.8697524718980896E+00   1.4164404071279279E+01   1.8593519843654821E+01   4.2309253726718266E-01   1.4143185207581171E-05
H   5.8176078815055163E+00   2.6792746332508631E+01   2.5035431999073392E+01   6.3515852114512605E-02   6.7910305636658847E-06
O   5.8894849169329317E+00   1.4283084100089408E+01   2.1802148297378110E+01  -6.7517694988452881E-01   1.4021940162877155E-04
O   5.8793647714484347E+00   1.1610670362849520E+01   2.1120720318108997E+01  -6.3676010893665413E-01   6.9905148675514095E-05
H   5.9200432548035238E+00   1.9704549002761937E+01   1.8386454945221505E+01   5.3291380725933646E-02   4.9804183221657294E-07
C   6.0362220228303345E+00   1.4722349384448250E+01   2.4104390892424536E+01   3.2565405470524045E-01   1.3614186567794017E-05
P   6.0427201231294783E+00   1.3154081100772297E+01   2.0589707835963868E+01   1.5089646902738996E+00   8.7952718040955024E-05
H   6.2177682239847885E+00   2.9669205480789817E+01   2.8785412055902260E+01   4.1754015552005597E-01   4.2930425176455584E-05
H   6.2600542757780824E+00   1.5379616353451089E+01   1.9567317682040507E+01   8.7604514945805567E-02   8.8469183866373545E-06
H   6.3801596585523201E+00   2.9220800811319197E+01   2.5129869706702092E+01   4.1889691036727861E-01   7.1652408020028706E-06
O   6.3997215124553728E+00   2.9905921809587504E+01   2.5858700178771507E+01  -6.5569448602219893E-01   2.2084998327943927E-05
H   6.5789166485779162E+00   1.1081856810934411E+01   2.0652640765988014E+01   4.1470581651605998E-01   4.1189509411111507E-05
C   6.5483827503489831E+00   2.6630778159692223E+01   2.8802899885351806E+01   3.6099183829931691E-01   1.8269710244921843E-05
H   6.6373305393070776E+00   1.7506027645931422E+01   1.8122527614012728E+01   5.7028655077328905E-02   8.5558026788833335E-06
H   6.5663860439048527E+00   2.7684066652185972E+01   2.9092620399065545E+01   4.5831108684667221E-02   6.0635565564212181E-07
C   6.5676646987835205E+00   2.4008291063843114E+01   2.4692165567158440E+01   3.8611548189608325E-01   3.9688651914970794E-05
H   6.5998505159334693E+00   1.9733144230017864E+01   1.6113238428741152E+01   6.5076516716057187E-02   1.0429702156311082E-06
H   6.6350316732285304E+00   1.4717914827800740E+01   2.5013463927089141E+01   6.3620567632932001E-02   2.6436223934264483E-06
N   6.7027658999826034E+00   2.5917788650129697E+01   2.3276355529720369E+01  -7.2757960586312009E-01   5.0111821623467735E-03
C   6.7688102812198112E+00   2.5152108646598826E+01   2.6963842310212748E+01   5.3864345416010506E-01   1.3656647246038378E-05
C   6.7949120801995306E+00   1.4177274223606560E+01   2.2940471683968866E+01   2.6779513389046095E-01   5.2060236149057895E-05
C   6.7245092070094907E+00   2.3568340265989228E+01   2.2289446469536486E+01   3.8904917402179295E-01   1.6954754266033370E-05
C   6.7683278597137635E+00   2.6365916127388061E+01   2.4728120839535265E+01   2.9476417570838098E-01   2.0993882915547724E-05
H   6.6765926220891050E+00   2.1504420967738756E+01   2.2021653281568586E+01   2.7812895652118841E-01   2.1667117927908057E-05
C   6.8242399679469443E+00   2.1676949971150641E+01   2.4057617713239740E+01   3.0439260201545970E-01   1.1324668256836167E-05
H   6.7059313337015753E+00   2.2397904445711625E+01   2.5964699769083694E+01   2.7198863845565113E-01   1.0803174937626378E-05
O   6.9451994409336031E+00   2.5928619794342932E+01   3.0053766265938641E+01  -6.9086855190081309E-01   1.0440828079448253E-05
C   7.0017119558185934E+00   1.9606829656475732E+01   1.8259714016035947E+01  -8.1553379807148829E-03   2.1815065295727489E-06
H   6.9677914740131035E+00   2.3118063221265146E+01   2.9227771222569547E+01   5.5800329503928214E-02   5.1165118131289341E-06
H   7.0229321064352570E+00   1.3123952981598491E+01   2.3085777356739754E+01   5.9492205937479725E-02   1.4543034126155457E-06
N   7.0880892880646824E+00   2.5117530351684849E+01   2.5533357430087595E+01  -6.2768550145173041E-01   1.3073079263997369E-05
H   7.0477858218773637E+00   2.4185045681279504E+01   2.7386431240144692E+01   4.4782500560615057E-02   7.8865990159861680E-07
O   7.0796735533953310E+00   2.1816973369464307E+01   1.9215344320690370E+01  -7.8009648616285698E-01   3.9045547773575805E-06
C   7.1399625843176384E+00   2.4442729389686338E+01   2.3394768770058786E+01   1.7440399947974772E-01   1.7496837328732233E-05
N   7.2061872197149057E+00   2.2712960932976817E+01   2.5097240005948574E+01  -6.7088957130197713E-01   2.2973920429248422E-05
N   7.2137938948149722E+00   2.2155304464292250E+01   2.2659213695184679E+01  -7.1552053632933443E-01   2.0137271794943689E-05
H   7.0538581645056402E+00   2.3518013424968430E+01   2.0250287432374478E+01   2.8220229604954605E-01   2.5602871014149678E-05
H   7.2026920263409284E+00   2.4948386382437761E+01   2.0900473189985441E+01   2.7245637366729603E-01   6.4297961142336040E-06
C   7.3107540825879633E+00   1.5465034033912008E+01   1.9306471197684015E+01  -1.0826394757994606E-01   2.0140259469405007E-05
H   7.3589571961113522E+00   1.5827007800508968E+01   1.8277858108567916E+01   7.4859358767653261E-02   2.4203410292983526E-05
H   7.3518520641156231E+00   2.7205198569706702E+01   2.6933172536171245E+01   7.1664026943199510E-02   2.2157267072978844E-06
C   7.3837483454115294E+00   2.0000751193484177E+01   1.6814573269206385E+01  -1.9679908388700795E-01   7.3199331964388221E-07
C   7.4084355831346071E+00   2.6340315561630014E+01   2.7590469144783629E+01  -1.0588875702848366E-01   2.2890361712437842E-06
H   7.4386978273620619E+00   2.0796083756495214E+01   2.4245150167369758E+01   5.4459077539156020E-02   5.7914741985627240E-06
C   7.4102342830394550E+00   1.8165238116711841E+01   1.8506474847167208E+01   1.1453800905033340E-01   7.4561356124493088E-05
N   7.5266191348199722E+00   2.3964795779926021E+01   2.1067842950765261E+01  -7.6062284348762699E-01   1.8159058133490904E-05
H   7.5061361506738979E+00   2.2236277083270597E+01   2.0022604138881345E+01   4.1408788596537671E-01   2.8323064342494904E-05
N   7.5176838499753211E+00   2.0083783767233729E+01   2.0684293048986838E+01  -6.7937506369194267E-01   1.9293344041061119E-05
N   7.5171940354015625E+00   1.7797308478565430E+01   2.0006349255328825E+01  -6.6400866072068609E-01   6.7394570157264418E-04
H   7.5625268437421171E+00   2.1068551569696417E+01   1.6730603798664870E+01   6.5041272875317357E-02   1.1338955386955572E-06
H   7.5955800344372362E+00   2.7063277807077064E+01   2.4833403856160835E+01   5.4512441917026866E-02   3.9686253174310049E-06
H   7.2997896264835900E+00   1.9043885673679430E+01   2.2732073272513972E+01   4.0886142684208959E-01   9.7500213301827399E-03
H   7.6893264864997306E+00   1.4735613842877255E+01   2.2673025153764076E+01   5.5015811573030260E-02   5.0585081628242280E-06
H   7.6537884338513500E+00   2.3289385795485092E+01   3.0877325231265651E+01   6.1776213326223628E-02   3.5531900708463607E-06
C   7.6946539945839802E+00   2.0506935219398727E+01   1.9225195435288622E+01   5.2619949131313248E-01   5.1599789201116254E-05
O   7.7100905953593539E+00   1.3259659112701714E+01   2.0401265844480328E+01  -7.0480249545427132E-01   9.9772384599669752E-06
H   7.6980615741484710E+00   1.6176220333345114E+01   2.1314091345125345E+01   4.5761431859475676E-02   6.9356590487660652E-04
C   7.8763134151093590E+00   2.3132027446383781E+01   2.9824960782563942E+01   2.7502949270362897E-01   6.0513006268646377E-05
O   7.9698349072328458E+00   1.8387473694954114E+01   2.2381475514870214E+01  -3.9134222694328180E-01   1.5006206539630271E-01
C   7.9466011413298112E+00   1.6385888297066359E+01   2.0267585869553542E+01   5.4410125631951711E-01   1.3666890929844839E-04
H   8.1185559233230649E+00   2.0788154873076856E+01   2.1192865862331693E+01   2.7082222063650763E-01   1.8371268800240923E-05
H   7.5377581220177632E+00   1.7547416302614813E+01   2.2032529517898290E+01   4.1574994744337745E-01   2.2448890701278978E+00
H   8.1031185549987406E+00   1.3625816025066689E+01   1.8433373229813771E+01   4.7079358006312355E-02   8.6378636524342200E-07
C   8.1527891708169680E+00   1.4213202263417511E+01   1.9351580329491341E+01   3.5807541638823848E-01   1.9595869056577669E-05
C   8.3552346775224073E+00   1.8845939164917759E+01   2.0799373344784446E+01  -5.7603088367436328E-02   8.6003906492441023E-02
H   8.2275093482601456E+00   2.4510610532376369E+01   2.3458706866012754E+01   5.6414204722091910E-02   6.6402175189462415E-06
H   8.2913972390045032E+00   1.9486136906264463E+01   1.6511234401421159E+01   6.3929685983069140E-02   6.7278027070635787E-07
H   8.3335969106893888E+00   2.1034135240156910E+01   2.9943125035147510E+01   6.3439402012653634E-02   2.9195186317916062E-06
H   8.3609853751425032E+00   1.7924175514763473E+01   1.8027871657132913E+01   5.3940603365664863E-02   8.9659450104299179E-06
H   8.4079004710845986E+00   2.6230175549570944E+01   3.2267626062402371E+01   4.1886855218869923E-01   6.5051781638434869E-05
H   8.4628389007780651E+00   2.6141577113591772E+01   2.7760198894024377E+01   8.5632082922856956E-02   8.0907870800237578E-06
P   8.5806682825214740E+00   2.5658343919991861E+01   3.0231217985239013E+01   1.5609923855041887E+00   5.7141151032746423E-05
H   8.7552734340186049E+00   2.0639494240027222E+01   1.9005970818048109E+01   4.5273886816572739E-02   1.1752867678556844E-05
O   8.6584259104102834E+00   2.4265169974206721E+01   2.9343393389562134E+01  -6.6358204494897244E-01   1.4913649396528970E-04
C   8.7843870898090888E+00   2.1973106047865482E+01   2.9631855668773355E+01   3.2449246190141512E-01   1.4817252580588969E-05
O   8.8062957639603816E+00   2.5427815494932915E+01   3.1836208647750894E+01  -6.2182420766847279E-01   6.1728696824339322E-05
O   8.8346805756376696E+00   1.6314151539176681E+01   1.4841079114128522E+01  -6.7775829624537387E-01   5.9957664583898125E-06
H   8.8759231737908824E+00   2.7334233385781680E+01   2.8837407395502478E+01   4.2183157465357080E-01   6.4841514988702007E-06
H   8.8624574251563129E+00   2.4385088078395263E+01   2.5063335246920353E+01   2.7209360761841517E-01   2.6097721155497529E-06
H   7.7835030912124283E+00   1.5230331751999664E+01   1.6440913062262467E+01  -6.0435331863733244E-01   3.9501190924523602E-03
O   8.9792045932979878E+00   2.1835198610152155E+01   2.8139793420504393E+01  -7.9396254608523709E-01   7.9069436589849801E-06
H   9.1355705422631228E+00   2.2012683233071009E+01   2.5381187613376419E+01   5.0616617752446968E-02   3.0207168407964886E-06
H   9.1970789437981910E+00   2.4204901004160231E+01   2.7190439452580879E+01   6.4039245607061757E-02   1.1209803183220211E-06
H   9.2510091521351434E+00   1.7222506526720636E+01   1.4827857665094982E+01   4.2547945068916060E-01   8.3605194977003249E-06
O   9.2939012909347323E+00   1.3731762062067423E+01   1.5554116814497208E+01  -6.2589666641974429E-01   2.4924890208177756E-05
H   9.2343739745803397E+00   2.3073516561116332E+01   2.2775913406374222E+01   5.8255811084325759E-02   4.7777542154261070E-08
H   1.0385545054504222E+01   2.5174619750160595E+01   3.0221522335468954E+01  -5.7657186731195087E-01   1.8725113405430457E-03
O   9.3262426985020319E+00   2.7032683152176876E+01   2.9677467021848763E+01  -6.6567901899798798E-01   2.7257095442459529E-05
O   9.4083554809728707E+00   1.6100144518482921E+01   2.0168818109342919E+01  -7.9817155661505623E-01   1.3125112932833367E-05
H   9.4086446015466905E+00   2.2034006967976872E+01   1.7543137251161234E+01   5.3776163464763105E-02   1.3599262671479106E-06
H   9.4366229175137502E+00   1.3700230181897680E+01   1.4567615807938775E+01   4.2108028786583540E-01   5.8212334843285780E-05
H   9.4287895620394320E+00   2.0578999526915936E+01   2.3392139952707566E+01   5.7086321613790569E-02   2.6320432175154233E-06
O   9.5684434513312571E+00   1.5607787225365069E+01   1.7544825746439290E+01  -6.5799990151244891E-01   1.9089876948674906E-04
C   9.5541888584734469E+00   1.4670551082755843E+01   1.9662702475452853E+01   3.2966725081426063E-01   1.2774158994726956E-05
P   9.6058117709826707E+00   1.5299907544360780E+01   1.5918851472432827E+01   1.5845263975542698E+00   3.4243369387107684E-05
H   9.6760118820787824E+00   1.7681986231896214E+01   1.6303492753437062E+01   9.0521212465934808E-02   1.5432978575560822E-05
N   9.9111524475661152E+00   2.4534412505874130E+01   2.5197145829934634E+01  -7.2092644676065909E-01   2.3979875588632908E-05
H   1.0058118949695462E+01   1.4134299253600291E+01   2.0462514522467572E+01   6.6526125470504294E-02   2.3177748792559785E-06
H   1.0140467163006100E+01   2.3005120836827381E+01   3.0984891392338586E+01   4.7784133085272740E-02   5.6384434612759412E-07
C   1.0138642429648216E+01   2.4152468566961542E+01   2.6651525287771562E+01   2.9047298772843400E-01   2.1005339897528881E-05
C   1.0154598270763785E+01   2.2243041253620589E+01   3.0207019236833226E+01   3.5452673471344909E-01   2.5722575612656158E-05
H   1.0166468161818633E+01   2.3747065036537602E+01   1.6202320933804451E+01   6.5241675476718441E-02   2.7944123650065788E-07
C   1.0208274992084620E+01   2.2208724857729969E+01   2.5334968686763816E+01   3.7000340882282234E-01   1.9446628801071579E-05
H   1.0296405797598238E+01   1.9000749628845654E+01   2.8648512091476274E+01   5.4231771024435327E-02   3.3908200277974876E-06
C   1.0285615540744288E+01   2.3169457775426245E+01   2.3048328248911190E+01   3.7738934485494591E-01   2.1458344624409468E-05
C   1.0386134966033689E+01   1.4791206806079328E+01   1.8429576486707717E+01   2.7520455248331821E-01   6.4233509528895645E-05
H   1.0422705860660813E+01   2.0520347638613625E+01   1.5985754643338021E+01   5.0988499383339603E-02   1.1953113294232436E-04
C   1.0436835426758128E+01   2.1937470226460864E+01   2.7852518860206821E+01   5.3318947398412497E-01   1.0440118653284567E-05
C   1.0501391412648093E+01   2.2030873383074017E+01   1.7516862321108505E+01  -1.8231729143478148E-02   4.7763614834902888E-06
H   1.0444836344224839E+01   2.5133049369008333E+01   2.2607133359961537E+01   2.7213959913915298E-01   1.6459490884439221E-06
C   1.0511439127866561E+01   2.0693138428862593E+01   2.3472455870768126E+01   3.0744495336897426E-01   1.1737188931836199E-05
H   1.0555613488705509E+01   1.3829279003584764E+01   1.7952564492756288E+01   6.1716153218981606E-02   2.2232482094440820E-06
O   1.0530733163483355E+01   2.1015882536962778E+01   3.0961134965122305E+01  -7.0711051637455036E-01   1.0268042801384829E-05
O   1.0558433134389764E+01   2.3350842413104857E+01   1.9522917760669991E+01  -7.7615516626170500E-01   9.9159981942189110E-06
C   1.0588431325135000E+01   2.3368795711186507E+01   2.4476527697808407E+01   1.6765339496807474E-01   1.4717021736718985E-05
H   1.0467749657242956E+01   2.0168003474359661E+01   2.5458156596695400E+01   2.7130249499358172E-01   1.3917787841158357E-05
N   1.0702020274661503E+01   2.2735329536780874E+01   2.6643859805785766E+01  -6.4711716113246531E-01   1.6358882815748040E-05
H   1.0696439477753414E+01   1.8813214167061890E+01   1.5457730276690423E+01   7.2907347769220476E-02   9.6209890444171675E-06
N   1.0598419861243023E+01   2.1011553306860414E+01   1.9835057789294435E+01  -6.9744265834739583E-01   5.5222269510554756E-04
H   1.0545657045552295E+01   2.4239530836305335E+01   2.1304669151653975E+01   2.8171186416177385E-01   2.3962906024461810E-05
C   1.0712295339232542E+01   1.7937433897403629E+01   1.6102335872393471E+01  -1.0638516359708916E-01   3.3581950950167179E-05
H   1.0616100760734621E+01   2.1671613635431044E+01   2.1711581525984517E+01   2.8798132729075054E-01   6.7650238022870275E-06
H   1.0770436599396318E+01   2.0917595756908973E+01   2.7655288652399385E+01   4.7131627839696044E-02   8.9324043764987599E-07
N   1.0769829861405926E+01   1.9584233354381709E+01   1.7824569219312274E+01  -6.2692957360482815E-01   4.2137046489218344E-02
N   1.0919779788295708E+01   2.0949127027954884E+01   2.4921426455165626E+01  -6.7512164449237400E-01   1.2079441956429416E-05
H   1.0911381508840128E+01   2.3254643665070663E+01   2.0458303860275485E+01   4.1243755295047291E-01   5.6185007765903323E-05
H   1.0896530626372780E+01   2.4811953239630647E+01   2.7066852890319261E+01   5.3728298721589574E-02   1.9067395626895022E-06
H   1.0901226023617905E+01   1.8311760716889754E+01   3.0187586896066023E+01   6.2732470818577468E-02   9.3808253896787304E-07
N   1.0953076260524384E+01   2.4281737345054189E+01   2.2264534936056716E+01  -7.6074979819095478E-01   1.3117149208153088E-05
N   1.1013740777090185E+01   2.1868524095599913E+01   2.2662256786137178E+01  -7.2587607111343022E-01   1.5173316328091856E-05
O   1.0882459119593644E+01   1.8566762245847514E+01   2.0580133510998444E+01  -1.3875508108080181E+00   2.6414963309961792E-01
C   1.0990246387013585E+01   2.0733174515912008E+01   1.6888604457277587E+01   9.5493761729488646E-02   7.5644921470140517E-04
C   1.0996926282859349E+01   2.3232099287471929E+01   1.6674465025793946E+01  -2.0097216725594258E-01   6.7480460696290119E-07
H   1.0994996509391065E+01   2.3702054015014461E+01   2.8932753073914519E+01   7.1305478657112453E-02   6.0654390786973953E-07
H   1.1697951848126971E+01   1.8865620053146095E+01   1.9204339559824056E+01   1.3627760782425558E-01   7.6235962079068900E+00
C   1.1041770068557913E+01   2.2140934614490462E+01   1.8900768864190510E+01   5.1558450124890154E-01   1.7757262300457131E-05
H   1.1016441067348483E+01   1.9098535270479772E+01   2.1431779637834332E+01   4.1010288052285415E-01   1.0204732242328611E-02
H   1.1049283185119064E+01   1.9811643341006640E+01   2.3119146880010458E+01   5.8841813377471297E-02   2.9618796420146681E-06
C   1.1044377600613098E+01   2.2615848329782686E+01   2.9037609142693274E+01  -1.0971888828588749E-01   6.0410250874966725E-06
H   1.1243118655082721E+01   2.1192733866480658E+01   2.0661337618277244E+01   2.8579557554408730E-01   2.1047987122081778E-05
H   1.1154021842229607E+01   1.7512934490399708E+01   1.8180565838195083E+01   5.1109205902993171E-02   5.6394674855374488E-04
O   1.1251422753532980E+01   1.5499844792841298E+01   1.5707089124106535E+01  -6.8663278002360784E-01   1.0491564106044003E-05