841
Lattice="      34.3999999999999986       0.0000000000000000       0.0000000000000000       0.0000000000000000      40.0000000000000000       0.0000000000000000       0.0000000000000000       0.0000000000000000      40.0000000000000000" Properties=species:S:1:pos:R:3:charge:R:1:kinetic_energy:R:1
H   3.4392929918406836E+01   2.8908491189321808E+01   2.4017098167673087E+01   8.2127069571583888E-02   3.0398787614099042E-07
O   8.5003816315609007E-02   3.0843849168145155E+01   2.1575060108227490E+01  -5.1191175536330036E-01   1.4563844831091152E-05
H   2.0258742221210055E-01   3.1414203837278691E+01   2.0816750253667443E+01   3.4329372377368728E-01   2.1783673446214755E-04
H   4.9294884028935299E-01   3.0586329504715543E+01   2.4407967934784093E+01   8.1950013055384852E-02   2.1159839430120419E-07
C   8.4794197269492677E-01   2.9574895485388545E+01   2.4186709668809463E+01   1.4876868053293180E-01   4.0641985743407394E-06
H   1.3589572687066940E+00   3.2473443223705075E+01   2.3026181576719090E+01   3.5869052131313595E-01   3.5277688688543300E-04
H   1.3833214997305563E+00   2.9176945034054079E+01   2.6256224854174373E+01   9.2661229068376483E-02   1.4484217776463917E-06
O   1.6582004203780842E+00   2.9532635359320317E+01   2.2936274398674492E+01  -7.1293036619659933E-01   7.9259212172653229E-07
P   1.7183830218279927E+00   3.0952164919016312E+01   2.1925498283431601E+01   1.3905076367743270E+00   1.2217690748148415E-04
H   1.7587033588582717E+00   2.6844208698160944E+01   2.1848531627904862E+01   3.0399288239614686E-02   4.6279609037950342E-06
C   1.7903720775849752E+00   2.9066188391763824E+01   2.5240788189098481E+01   2.9496544165729377E-01   2.0349063192912382E-07
H   1.7985902098268594E+00   3.2169564050155060E+01   2.1029570427304563E+01  -3.8648560715958102E-01   1.2857719279500359E-06
O   1.9393981872478885E+00   2.7582417079028300E+01   2.5005287316524441E+01  -7.5759538444905239E-01   7.5650231054158278E-06
O   2.1914319561510256E+00   3.2013435243313083E+01   2.3170492457139567E+01  -6.1969310142058287E-01   1.5884328934578244E-05
H   2.1660578010094911E+00   3.0465344488748485E+01   2.0187580519212908E+01   3.5293225903389402E-01   5.2559460468874785E-04
H   2.2489392295449879E+00   2.4767078098686138E+01   2.0444546110892983E+01   9.9364215944404144E-03   6.5428248732309446E-06
H   2.3999942260183933E+00   2.0884124772727102E+01   2.3257469563839788E+01   1.2809278827641046E-02   2.0198920983915913E-05
H   2.6181504793167041E+00   2.7775092821147407E+01   1.9645269111351297E+01   8.5351414886800647E-02   3.3910534511392421E-07
H   2.6965310608920441E+00   1.4999322184162489E+01   2.4220931082760799E+01   9.2197767546116194E-02   1.9036034404989394E-07
O   2.7819579466854227E+00   3.0200375797033807E+01   2.0864806883974701E+01  -5.3056789552449324E-01   3.0710680328234960E-05
H   2.7834380911985548E+00   1.9129838721979503E+01   2.1479743778751519E+01   3.7689971915084608E-02   2.1018358433575458E-06
C   2.8486103616774332E+00   2.7014394395369528E+01   2.2029520427335825E+01   7.1326388906651772E-02   5.5478047038763719E-06
H   3.0389371977036261E+00   2.8091014847442551E+01   2.2049924653053790E+01   7.0150726260662322E-02   2.1356490356920950E-06
H   3.0464621381568873E+00   2.6284303339982650E+01   1.8819450387002266E+01   8.6096631723122652E-02   1.9295503461061582E-07
N   3.1826059537297779E+00   2.4297617309837626E+01   2.2276887953733883E+01  -3.8410070045096667E-01   1.0660373422846838E-05
H   3.2018418210613713E+00   3.0632337681842170E+01   2.4597929251556693E+01   7.4115862062439586E-02   4.8769562602367300E-07
C   3.1902097354847130E+00   2.9639953492432902E+01   2.5084781630232659E+01   2.7196027443571591E-01   1.2630040727018057E-06
C   3.2702558496013467E+00   2.4879046447926029E+01   2.0939147411700340E+01   4.6410075865085121E-01   5.1735462382112601E-06
N   3.2066418495240314E+00   2.6436397457468583E+01   2.3366088604326229E+01  -3.9887029644566141E-01   8.1685201271098533E-07
O   3.2052446759677795E+00   2.4366414100300421E+01   2.4650634935030521E+01  -7.9544945009633494E-01   5.0379235975199584E-06
C   3.3675928190633422E+00   2.7271393891628989E+01   2.4533605068456787E+01   4.4216946761312270E-01   2.1513516862276247E-05
H   3.3449596457775930E+00   2.7049353155748527E+01   2.7582426085992328E+01   8.1310701658969031E-02   2.1638137260922647E-07
C   3.3873804881028797E+00   2.7006584088537402E+01   1.9561464137949841E+01  -2.6509132581983241E-01   4.0920290647011064E-07
C   3.4707373802862191E+00   2.0892686527231362E+01   2.3564787569278295E+01   2.2839195390324152E-01   2.3807265543906943E-05
H   3.6563698137131970E+00   2.3328743878806808E+01   2.2285459305751914E+01   2.1677710578156972E-01   1.3716279578837099E-06
H   4.7493989640441727E+00   2.4989511236081338E+01   2.3484111656976850E+01   7.9426834184934347E-02   5.0857907078863488E-07
H   3.4447762415849796E+00   1.4826818476970720E+01   2.2634492377978059E+01   8.5512539587845215E-02   1.2322915566697836E-07
H   3.6673223547907541E+00   2.1527388287184834E+01   2.4441835066689155E+01   3.9206809669120823E-02   2.5202264152924202E-06
H   3.5210323433377133E+00   1.3305793034514547E+01   2.5680492144834073E+01   4.0832442935405033E-01   2.1042415305995123E-06
N   3.5688107473209256E+00   2.1199699308487716E+01   2.0047425023694132E+01  -6.6210352732445443E-01   6.7873054023509860E-06
C   3.6471516413706246E+00   1.5054095095072624E+01   2.3685852285068584E+01  -1.7491387437526384E-01   2.1621656289378324E-08
C   3.6484462097380885E+00   2.6345518167213452E+01   2.0923288932783347E+01  -5.2461793910999255E-02   1.3583054325055425E-06
H   3.6219559852650489E+00   1.6232983522185481E+01   2.0887741610935720E+01   7.2074265084879352E-03   2.8193885335693051E-06
O   3.5683778307935246E+00   2.9914100134636392E+01   2.6485044100594386E+01  -5.8960899990406990E-01   8.1958564754843135E-06
C   3.6899692113085054E+00   2.5066889076586239E+01   2.3388670286205290E+01   5.3748184595558479E-01   7.9196487412811404E-06
H   3.6295667471822992E+00   2.3472680728603738E+01   2.4626474329927113E+01   4.1131153367883122E-01   1.4607221860233331E-06
H   3.7988171949329681E+00   2.6629495270663483E+01   2.5289381919386432E+01   7.6237308881295984E-02   5.2522412401958018E-06
H   3.8261362900830318E+00   2.0624989367471805E+01   1.9189407095359538E+01   2.3654550965678012E-01   1.7464916708689245E-05
H   4.0355136958302653E+00   2.3080236023045224E+01   2.0157599020266392E+01   4.5272927427557019E-01   9.3989558966553013E-06
C   3.8969905800900211E+00   1.9221537570253901E+01   2.1483192858612306E+01   1.0639802912932250E-01   8.5794182842283993E-06
N   3.9143217540670827E+00   1.9499574678329811E+01   2.3955996394446785E+01  -4.8808588683699838E-01   1.1669732747272688E-05
H   3.9307831316157955E+00   2.2240156696635967E+01   1.9936937637844061E+01   2.8804610746680959E-01   1.3502693896698088E-05
N   3.9476971209292553E+00   1.7302708933274847E+01   2.2721061262817507E+01  -4.1901825070927323E-01   1.8057433949359034E-06
C   4.0129370580887000E+00   2.8620278110240239E+01   2.4334658081536070E+01  -1.8469746515073915E-01   1.4937698361563670E-06
H   4.0111067560147013E+00   2.8883353229119507E+01   2.3276306233470532E+01   9.8213703122169371E-02   3.9342574326563659E-07
H   4.0357189219730047E+00   1.6989803020112330E+01   2.4693060557092522E+01   6.8288944461870282E-02   5.7198912682899760E-06
N   4.0997472018331385E+00   2.1506354034077930E+01   2.2413898209330210E+01  -4.9272708204499960E-01   4.2690489741154397E-06
H   4.0855808170034056E+00   2.7981360212852657E+01   2.8931782447861320E+01   8.2218476261350926E-02   5.0446725297990563E-07
H   5.1244029977602361E+00   3.1382539584076071E+01   2.6737348724155552E+01  -5.2553817572440176E-01   5.2185673972325085E-06
O   4.2439004936176454E+00   2.4092111217483421E+01   2.0195631734314418E+01  -7.8419274095297542E-01   1.0089928932735151E-05
H   4.2844399539386364E+00   2.7483901249055389E+01   1.9176010430684673E+01   8.7019727379890166E-02   1.6925673243709780E-07
C   4.3253582093680860E+00   2.0629855940437682E+01   2.1204039766067826E+01   2.5348794823850707E-01   3.5104243209587714E-06
C   4.2841736080698656E+00   2.7329638019328627E+01   2.8074779945531109E+01   1.4560479243107416E-01   3.7755369551751762E-06
C   4.2810882978609968E+00   1.6420324901124900E+01   2.3808399450026684E+01   4.3040706811532869E-01   7.3856131149715451E-06
O   4.3642609022758556E+00   1.3818141194492009E+01   2.5665671003636731E+01  -7.4245926691194342E-01   2.9532775804731855E-07
C   4.3868897422128166E+00   1.6919101431049345E+01   2.1323955321659437E+01   1.9043801711122033E-01   5.3840354219657515E-06
N   4.4176590655145977E+00   1.8177356204295240E+01   2.0524429333369820E+01  -4.7076333903482492E-01   2.0960774974167592E-05
C   4.4337948210277096E+00   1.8728237033956216E+01   2.2803634619295345E+01   2.2471005009716638E-01   1.2674760179278696E-05
H   4.7184387920675626E+00   1.9599205282470848E+01   2.4641107786520983E+01   2.2707746121645889E-01   1.9650355711009551E-06
H   4.6291794290492785E+00   1.3095012983558620E+01   2.3740293836066076E+01   6.4821019510073463E-02   3.0076065055078114E-07
C   4.6661180238366020E+00   1.4077526142611532E+01   2.4232150243877562E+01   2.8299373452977106E-01   2.9898851989361669E-06
H   4.6789108487986724E+00   2.5522920117868594E+01   2.9233624416696177E+01   9.5451504479596050E-02   1.1311744932742991E-06
H   4.7158035050170524E+00   2.6432486292012698E+01   2.1179953014764848E+01   7.8476172519139742E-02   2.2232781328744922E-07
H   5.0330997721029389E+00   2.1881900186195494E+01   2.2686573122869067E+01   2.2832413207535485E-01   6.8805368928862125E-06
H   5.0522346705265466E+00   2.8580342265569012E+01   2.4615159993263262E+01   1.1706516403039557E-01   4.0959025228516209E-08
O   5.1403456735545996E+00   2.8001435775396839E+01   2.7053107442412681E+01  -6.5742769239853160E-01   2.6153072968561159E-07
P   5.1544486235236917E+00   2.9691931179214166E+01   2.6910853074169751E+01   1.4848951521248361E+00   1.6667099076316844E-05
C   5.1458677643959145E+00   2.6155925585305372E+01   2.8466029109703818E+01   2.9946258815154136E-01   9.5311285861328805E-07
H   4.3756987160270500E+00   1.3163950121375105E+01   2.0897911046521781E+01  -4.8834436682382254E-01   1.8094159598387502E-06
O   5.2885885382458175E+00   2.5290589354132443E+01   2.7218820390355731E+01  -7.7562131379692900E-01   9.4208511105610939E-06
H   5.4117818945020799E+00   2.0644317312139687E+01   2.1006196345949675E+01   5.2077530748269041E-02   1.8313152797850174E-06
H   5.3661694507587399E+00   1.6419217677567723E+01   2.1302944440467538E+01   7.3400805612005127E-02   2.6562088216858856E-06
O   5.3907150639004842E+00   1.3401224951569510E+01   1.9054425005653705E+01  -6.1614326958206611E-01   4.5877136308373808E-06
H   5.4186037564624456E+00   1.8414842195952815E+01   2.0330474122916399E+01   1.9750327979113780E-01   6.7149163477777634E-06
O   5.4723185048917244E+00   3.0219049822001452E+01   2.8456927113963850E+01  -5.9733906858753016E-01   3.0539680246102774E-06
H   5.5073613413725688E+00   2.3923125945181631E+01   2.4789312257536604E+01   5.0788939172517589E-02   1.0731634741839999E-06
H   5.5385151713374796E+00   1.8754043489463594E+01   2.2811845658197740E+01   5.3109711703334561E-02   1.3976168423400789E-06
H   5.6415183609951081E+00   2.3570488309317980E+01   2.2113567291043388E+01   4.3653543717676713E-02   3.5009369547759239E-06
H   5.7672201106243657E+00   2.5920508111310973E+01   2.3071517183471851E+01  -3.6011185781699817E-02   8.6451104953934181E-06
O   5.7845463636462995E+00   1.6177681636399743E+01   2.3825046169521606E+01  -7.3833902381591265E-01   2.0375742856615585E-06
H   5.8044989307934909E+00   2.1367979776718471E+01   2.4161262025719886E+01   9.1175376545687525E-02   1.9280826036943411E-05
H   6.0397652736632388E+00   1.4008748657633985E+01   1.8656860335347002E+01   3.5826215345521284E-01   4.0632839360555290E-05
H   5.8556011073870708E+00   2.6829748529384069E+01   2.5107994590665719E+01   5.7055057589322722E-02   5.2065261861779065E-06
O   5.8930515290676224E+00   1.4307792467822583E+01   2.1809180978966548E+01  -5.7193254554710293E-01   3.7291729633334391E-07
O   5.8904562108205205E+00   1.1583786466486485E+01   2.1121188267569735E+01  -5.3211938059508057E-01   1.5110921618734134E-06
H   5.9252200512634854E+00   1.9705565861784482E+01   1.8398323980249067E+01   7.5633084863727329E-02   4.1986836539133193E-07
C   6.0347029282818552E+00   1.4716583414255929E+01   2.4104831661125861E+01   2.8900124462906884E-01   1.1003852048754049E-06
P   6.0100145501751499E+00   1.3153209341571888E+01   2.0592641554437510E+01   1.4834266968635781E+00   6.4921042583490505E-06
H   6.1041789544770211E+00   2.9527812997907255E+01   2.8735707038893960E+01   3.4096924120782357E-01   2.2087253455803522E-05
H   6.2633179189417083E+00   1.5378550795422189E+01   1.9534036229136206E+01   1.1108459673188753E-01   4.8371892207068336E-07
H   6.2784870113585560E+00   2.9129059257262217E+01   2.5290964483310063E+01   3.5323119072312581E-01   2.7593587533828523E-05
O   6.4169951421774698E+00   2.9904364635094115E+01   2.5858154735315786E+01  -5.3705389166403261E-01   2.4673034260493410E-06
H   6.6638897016860659E+00   1.1251568508318622E+01   2.0637890645148246E+01   3.4946246237929979E-01   4.3605877401508449E-05
C   6.5547180372956628E+00   2.6635413306949602E+01   2.8816836725412497E+01   2.5086626453307170E-01   1.7629135318331369E-06
H   6.6335795716634660E+00   1.7496645445841551E+01   1.8114852707643820E+01   5.4108120097450363E-02   1.1563823022429803E-06
H   6.5610527008641490E+00   2.7705503957215093E+01   2.9087658694354175E+01   6.8960369327453641E-02   9.4622894410946279E-08
C   6.5990279442802615E+00   2.3977974741684061E+01   2.4727965911016465E+01   1.9555919359161233E-01   1.7935907282525883E-05
H   6.5805223750316255E+00   1.9748347048356383E+01   1.6119413988532603E+01   8.5688693904233282E-02   2.4629945996799981E-07
H   6.6298055523767596E+00   1.4674130285300752E+01   2.5028422869233758E+01   8.9567073518868723E-02   7.3773103659502019E-07
N   6.7818553916130462E+00   2.5918523205379511E+01   2.3326457637491302E+01  -2.1495049225272922E-01   8.3828120466902944E-05
C   6.8048654091252772E+00   2.5154410710484555E+01   2.6935455204517780E+01   4.3707164620471106E-01   2.1100744041988751E-05
C   6.8236820403249769E+00   1.4164432057757272E+01   2.2941170616032565E+01   1.4300775088898909E-01   4.5253658478410836E-06
C   6.7439437773984476E+00   2.3556763881494195E+01   2.2225432363460989E+01   1.8885182852754312E-02   4.7620237366564556E-06
C   6.7458945746603023E+00   2.6350114654608969E+01   2.4688434699614596E+01   1.1687089909043769E-01   8.1150485960295385E-06
H   6.5165052543759021E+00   2.1615702835891728E+01   2.2130292206215117E+01   1.6698166217993249E-03   1.0076395800116917E-05
C   6.8290015842441578E+00   2.1713628798624928E+01   2.4053365252912041E+01   2.6112696154724446E-02   2.4254911594754806E-05
H   6.5442496149694120E+00   2.2433833962163931E+01   2.5845782873729878E+01  -3.5154329882103985E-02   1.2680877189339482E-05
O   6.9352329809146314E+00   2.5928052464200391E+01   3.0067147991005353E+01  -6.4882137904502102E-01   1.1080048783404068E-06
C   7.0100530744253522E+00   1.9601245694780904E+01   1.8253084106248757E+01  -5.0835085386477630E-02   3.0483434102891033E-07
H   6.9354303387185636E+00   2.3090448849227986E+01   2.9225238362462818E+01   7.7633161432072106E-02   4.8739655332618813E-07
H   7.0925434860078980E+00   1.3117622536435984E+01   2.3120557756173966E+01   7.7292285345876732E-02   2.8476099590538396E-07
N   7.0606754298214902E+00   2.5139224960863228E+01   2.5552837646148095E+01  -4.3015121500036191E-01   1.8442327455692967E-05
H   7.0923198123956102E+00   2.4177485707407506E+01   2.7279416407004650E+01   7.3081437232905277E-02   5.3042740361855269E-06
O   7.0798923187253342E+00   2.1818715058775197E+01   1.9206829202954307E+01  -7.2218780507815783E-01   6.9082952082571888E-06
C   7.1026237920925004E+00   2.4490296123813486E+01   2.3373376076710773E+01   1.9530792236497341E-02   2.3428586300954861E-05
N   7.2338398219082602E+00   2.2698086163082309E+01   2.5045449481874087E+01  -1.7247507144632035E-01   2.6566703472603784E-05
N   7.2375053612928486E+00   2.2180674748961152E+01   2.2701711721158002E+01  -2.5146904643963275E-01   3.8063479979614910E-05
H   6.9254072678546112E+00   2.3465251644819404E+01   2.0408299597744573E+01   1.1139751647387508E-01   1.2945831965240537E-05
H   7.1641201236245049E+00   2.4940997307612520E+01   2.1116801342628378E+01   1.1820184131330702E-01   1.9291703424974294E-05
C   7.3178801691205875E+00   1.5460415493765291E+01   1.9295000119339193E+01  -1.8019557769291605E-01   3.3782160767792065E-07
H   7.3918050969410789E+00   1.5834095144685207E+01   1.8271942789130264E+01   9.8900817511113348E-02   7.1473686269341241E-07
H   7.3431568793014250E+00   2.7196597052228828E+01   2.6914340982468946E+01   9.3863509747834972E-02   2.8657488870922577E-07
C   7.3768359142653095E+00   2.0003446555300393E+01   1.6813882580567689E+01  -2.6795751527095035E-01   5.8161448117068824E-07
C   7.4053935379115128E+00   2.6352065037671892E+01   2.7600204865179407E+01  -1.7040789520311961E-01   4.1048686281735855E-08
H   7.5345507784810462E+00   2.0921421925350465E+01   2.4200116776702796E+01   1.3339076000364458E-01   5.4861279450503348E-05
C   7.4134349307506193E+00   1.8150693564225193E+01   1.8523967654543899E+01   2.9335158491223368E-02   5.7655662437317322E-06
N   7.5138743851589407E+00   2.3965004545747032E+01   2.1095388589645129E+01  -1.7702486436654929E-01   9.6806154897204141E-06
H   7.4908686622958873E+00   2.2257981835792584E+01   1.9989068364977108E+01   4.0671141622385132E-01   7.4845122137090126E-06
N   7.5304032932522782E+00   2.0082604779147729E+01   2.0663292335766879E+01  -5.2982600326466756E-01   6.0230207542302035E-06
N   7.5186096148118136E+00   1.7785071345650564E+01   2.0008254292766168E+01  -4.1437448242212671E-01   2.4587751663728618E-06
H   7.5648655044937634E+00   2.1071705595166268E+01   1.6734778178512016E+01   8.7188089625046761E-02   1.4055579662715453E-06
H   7.6154395344157164E+00   2.6991053184159544E+01   2.4689549377432030E+01   1.1367333321594864E-01   2.4801326360351384E-05
H   7.2971095330662958E+00   1.9029930753746712E+01   2.2688720858067747E+01   3.9330621496783591E-01   4.7013266104120518E-06
H   7.7322572980257256E+00   1.4745089519026715E+01   2.2736748415428757E+01   7.4359323993696269E-02   4.9868893219532460E-07
H   7.5863333033098783E+00   2.3263810910539483E+01   3.0890267394537453E+01   7.9321396286341939E-02   5.6166049619437735E-07
C   7.6955676790954266E+00   2.0517533786750924E+01   1.9235874402654012E+01   4.4953283172787284E-01   3.1553117675319639E-06
O   7.7164340406023006E+00   1.3255915755623276E+01   2.0405103904103381E+01  -6.6256773612476394E-01   2.5640028913754352E-07
H   7.6410321057481054E+00   1.6253372311867963E+01   2.1286705006788011E+01   7.1890666880720433E-02   5.7855531264795085E-06
C   7.8478623203917772E+00   2.3146829942880483E+01   2.9832965083083639E+01   1.5042247222350946E-01   3.2239360059764306E-06
O   7.9606010520159893E+00   1.8386316663657894E+01   2.2382578539117766E+01  -2.9635326494239767E-01   1.0165649000948377E-06
C   7.9196162647682229E+00   1.6413925177136935E+01   2.0263202748620085E+01   4.3340032960137886E-01   1.2559258071748900E-05
H   8.0310536642661550E+00   2.0828348195326562E+01   2.1219031321947831E+01   2.2692674126775869E-01   4.2325233258500894E-06
H   7.4811536442792699E+00   1.7556960121074823E+01   2.2236995570772127E+01   3.9685741538897734E-01   1.5121467992346625E-05
H   8.1169877019581218E+00   1.3632561556363642E+01   1.8409025052877404E+01   6.5098454107990644E-02   8.0569123784874676E-07
C   8.1453774279591968E+00   1.4200880514583707E+01   1.9355208614594403E+01   2.4692926704755003E-01   2.5644074925857496E-06
C   8.3633372925368406E+00   1.8833349620232458E+01   2.0797803844486094E+01  -2.3272756220385915E-01   4.8633903266613749E-06
H   8.1940404308258064E+00   2.4626827573952937E+01   2.3442319485082361E+01   1.1211690545887620E-01   9.7318681253675168E-06
H   8.2781415854623219E+00   1.9485836661504081E+01   1.6493140908324630E+01   8.6563412498682601E-02   7.9583148022520586E-07
H   8.3247684695903299E+00   2.1028024543677766E+01   2.9987704170603287E+01   9.2181728071777269E-02   8.9625934375466952E-07
H   8.3623396349336794E+00   1.7914093045580820E+01   1.8010015697179018E+01   6.6212014969278865E-02   1.7342016415782103E-06
H   8.3374167690522363E+00   2.6253806976220556E+01   3.2027448963669855E+01   3.4974730727686210E-01   3.8445592415455298E-04
H   8.4603089399536557E+00   2.6163508428681929E+01   2.7771260317021706E+01   1.1075446744060635E-01   3.7196642178012264E-07
P   8.6064858550851771E+00   2.5655325952022721E+01   3.0233341367892489E+01   1.4942017454884367E+00   2.0190138801664547E-05
H   8.7691925903086450E+00   2.0629398895225567E+01   1.8974060112601538E+01   3.2217808754977484E-02   1.2262365355383977E-06
O   8.6624305064620870E+00   2.4260283920455446E+01   2.9320042429805817E+01  -5.6937913798173767E-01   2.1679211147279865E-06
C   8.7728128632606808E+00   2.1968288450115772E+01   2.9635039620808552E+01   2.9538745169247616E-01   1.8046066762247618E-06
O   8.7812234627006660E+00   2.5421515634668800E+01   3.1858734202239312E+01  -5.2755372276154500E-01   6.2613914371785368E-06
O   8.8305748774342607E+00   1.6311591841964866E+01   1.4812806031845117E+01  -6.1894640977654802E-01   5.3760063316652657E-06
H   8.7138960633283755E+00   2.7314779968789690E+01   2.8989829380853472E+01   3.4967850424293945E-01   3.7235744337991605E-05
H   8.9250515635765684E+00   2.4261665902450346E+01   2.5137970966721483E+01  -1.5359053300398218E-02   5.9842351083798082E-07
H   7.9207509981353486E+00   1.5259913839085002E+01   1.6340473409255544E+01  -5.1383874206180535E-01   2.7165206276233719E-06
O   8.9546668713709305E+00   2.1830198696816726E+01   2.8144162343736046E+01  -7.6502271472271843E-01   5.1106194214401089E-06
H   9.1149820239404864E+00   2.2058565535043154E+01   2.5382279810178872E+01   4.6521211349856317E-02   5.8525974660805143E-06
H   9.2338281246161298E+00   2.4191822226699742E+01   2.7276795187498671E+01   4.9457903485837562E-02   4.7918551400572917E-06
H   9.4450404300068627E+00   1.7060889835274754E+01   1.4761511282065982E+01   3.5245128043303564E-01   6.1242460264089110E-05
O   9.3071699362991875E+00   1.3707716969953763E+01   1.5558258985687331E+01  -5.0327300696946864E-01   9.9545155132578648E-06
H   9.2048181604356074E+00   2.3024932060664796E+01   2.2813489633870855E+01   3.6347904458065572E-02   1.9425592322196977E-06
H   1.0271161348601538E+01   2.5274833515353009E+01   3.0239176253156309E+01  -5.3974365797439994E-01   4.2884885444993476E-06
O   9.3272071838460686E+00   2.7052518462860423E+01   2.9696081653846175E+01  -5.9675092143385200E-01   2.9629652064335433E-06
O   9.4222613274612801E+00   1.6113230237321275E+01   2.0170339208041568E+01  -7.5189219415511577E-01   2.7759205642029699E-06
H   9.3951280119437470E+00   2.2039324964573169E+01   1.7524420078811190E+01   7.6810420510208033E-02   5.9071335614359228E-07
H   9.5410924487289606E+00   1.4002695720410820E+01   1.4686893441355970E+01   3.4761285143499254E-01   4.5156388002466467E-04
H   9.4387576109561024E+00   2.0514076933070854E+01   2.3357076472834347E+01   8.5222274730493930E-02   3.8378646993739177E-06
O   9.5676877560513436E+00   1.5626468005586565E+01   1.7558720916575247E+01  -5.8992060448999162E-01   1.0129616035657844E-06
C   9.5603106008641561E+00   1.4675366544912492E+01   1.9668009509404317E+01   3.0116520579845130E-01   6.3850676498828647E-07
P   9.5708845618284464E+00   1.5296029575995679E+01   1.5915283188167159E+01   1.4998900018313752E+00   3.3319170002317424E-05
H   9.6755388256248480E+00   1.7666349811036870E+01   1.6284036091181449E+01   1.1496864495028536E-01   4.9307839562025964E-07
N   9.9523701992064542E+00   2.4520073377630254E+01   2.5230527065085315E+01  -2.2386951085476259E-01   4.7799560439099230E-05
H   1.0068591907235286E+01   1.4111094245989971E+01   2.0461984685137416E+01   9.4840358437769390E-02   2.0598868046850259E-07
H   1.0129723098566199E+01   2.3038363063570820E+01   3.0981110509721045E+01   6.9369936955120837E-02   7.9480944453660220E-07
C   1.0110821900093180E+01   2.4159523159863042E+01   2.6615172389660060E+01   1.1989405161291700E-01   8.6944170327651495E-06
C   1.0157008252740214E+01   2.2242432438960392E+01   3.0215395355229901E+01   2.4194063930003606E-01   2.4620072719538668E-06
H   1.0169474245930255E+01   2.3760591649292849E+01   1.6186877112633951E+01   8.6002362681783961E-02   4.4822777210836058E-08
C   1.0227786510743384E+01   2.2172014181960463E+01   2.5337626825126556E+01   2.0979438161104547E-01   7.1657544156102250E-06
H   1.0264298339997197E+01   1.8973540883579634E+01   2.8644378758253012E+01   7.8442456871929411E-02   8.5079912350398965E-07
C   1.0298367818275537E+01   2.3191854986958035E+01   2.2986134706946864E+01   4.1004520540663059E-02   4.4040481309943265E-06
C   1.0405766372754460E+01   1.4774085354159439E+01   1.8420664292667229E+01   1.5155118720976368E-01   3.4651156376763452E-06
H   1.0390019059796671E+01   2.0517823000157023E+01   1.5972047947099920E+01   5.6536137144320375E-02   4.6908026579793232E-06
C   1.0467835381970325E+01   2.1954092376538846E+01   2.7827464359588600E+01   4.3791624035318621E-01   1.9299964580539255E-05
C   1.0493061891830438E+01   2.2036445542086589E+01   1.7498709385118609E+01  -5.7096180419209830E-02   1.5565593049775989E-06
H   1.0416068651066121E+01   2.5003796031380780E+01   2.2801061933381909E+01   1.2275789865022024E-01   3.0085306224413290E-05
C   1.0503200163220656E+01   2.0718418194410894E+01   2.3474199862374554E+01   3.4095756962313484E-02   1.1890460892712434E-05
H   1.0593125696770926E+01   1.3788337981846915E+01   1.7981159383768940E+01   7.9636522805748511E-02   2.6949631839629618E-07
O   1.0527345892107387E+01   2.1024022074916203E+01   3.0969522900497346E+01  -6.6714336195836843E-01   1.1148695618827298E-06
O   1.0542637534050279E+01   2.3360548804667882E+01   1.9525195421241101E+01  -7.2709147383635653E-01   1.0474848451065505E-06
C   1.0538259593363746E+01   2.3401451635516494E+01   2.4479833692627079E+01   1.1930872791688252E-02   2.4648107507307986E-05
H   1.0286125099567411E+01   2.0248252436317333E+01   2.5390772622471761E+01  -4.3350570258804844E-02   2.2621233362753142E-05
N   1.0668044231670750E+01   2.2737351269912025E+01   2.6665431521803864E+01  -4.4932841277556612E-01   1.6082783116302900E-05
H   1.0695810487924058E+01   1.8804574896077028E+01   1.5437593459766045E+01   9.4748420380033282E-02   4.4765774717673105E-07
N   1.0678114789807589E+01   2.0979927707840062E+01   1.9779154790817191E+01  -4.1859363201259114E-01   2.0559688223640684E-04
H   1.0432637001086372E+01   2.4138091350056872E+01   2.1417558592927456E+01   1.2010397373453419E-01   1.6451469439534895E-05
C   1.0708704123513449E+01   1.7927028218783722E+01   1.6087797964605205E+01  -1.7461262086873752E-01   8.8118266921402167E-07
H   1.0383358242665622E+01   2.1666931087428644E+01   2.1841186541882006E+01   2.4345922180184054E-02   2.2200380999351362E-05
H   1.0812246504239951E+01   2.0973621922454061E+01   2.7550551051670638E+01   7.4702935942292714E-02   3.0472684082764070E-06
N   1.0848779198460026E+01   1.9585657547257370E+01   1.7848953620259561E+01  -8.7629352073969713E-02   8.7260193542283059E-05
N   1.0933462146044889E+01   2.0966344498141499E+01   2.4863057143943518E+01  -1.9520035907570765E-01   2.9237671066972473E-05
H   1.0944650128959909E+01   2.3309600841250813E+01   2.0417204084408340E+01   4.2072187527809124E-01   6.0224877060360264E-06
H   1.0901022639999990E+01   2.4820619029579653E+01   2.6943169858483749E+01   1.0086518104156950E-01   1.6148660136675231E-05
H   1.0850310516240498E+01   1.8285986662610284E+01   3.0192138017955557E+01   8.0862175959980465E-02   3.0508480853933882E-08
N   1.0945798925541553E+01   2.4267417163294162E+01   2.2292288608602039E+01  -1.8263387589306213E-01   1.8657450483934536E-05
N   1.1007329757068391E+01   2.1865018879961781E+01   2.2711176657151846E+01  -2.3562039292880854E-01   1.1024344792332480E-05
O   1.0865704446174220E+01   1.8506426903388473E+01   2.0664502976116765E+01  -1.3727382130605399E+00   3.5849997889505201E-05
C   1.0967324983334453E+01   2.0733203202305781E+01   1.6878286438572061E+01   5.8937628466305902E-02   7.9927677415420127E-06
C   1.0989608276787678E+01   2.3235119511194263E+01   1.6669054300729783E+01  -2.7331136334599737E-01   1.5796385072323557E-06
H   1.1023846108478523E+01   2.3684583642138218E+01   2.8902442768393751E+01   9.0481248983553364E-02   3.6761616019027800E-08
H   1.2116521178188796E+01   1.9187233998614367E+01   1.9365751925576710E+01   1.3275141951479363E-01   8.2695849068343337E-05
C   1.1022861710918946E+01   2.2154612086826408E+01   1.8905462064864956E+01   4.3513454454208844E-01   2.1640588065951893E-06
H   1.1043008692912425E+01   1.9082988642336840E+01   2.1465268541237034E+01   4.2085521942921855E-01   7.9430181175686107E-07
H   1.1117053784645385E+01   1.9910307400586941E+01   2.3145283969115606E+01   1.1432557594932635E-01   1.6530894386042846E-05
C   1.1048941953562879E+01   2.2601098307760079E+01   2.9049716722516592E+01  -1.7328370222312373E-01   6.4253380143977368E-07
H   1.1199453728453992E+01   2.1154581642401389E+01   2.0672682208514402E+01   2.4584628858025481E-01   1.4477880297367329E-05
H   1.1080468896845371E+01   1.7622749375124268E+01   1.8220504104293262E+01   6.7273371841575336E-02   5.8114849260714107E-06
O   1.1250589262603157E+01   1.5494431509469109E+01   1.5707065196191298E+01  -6.4064569969066465E-01   4.1962242173678059E-07