841
Lattice="      34.3999999999999986       0.0000000000000000       0.0000000000000000       0.0000000000000000      40.0000000000000000       0.0000000000000000       0.0000000000000000       0.0000000000000000      40.0000000000000000" Properties=species:S:1:pos:R:3:charge:R:1:kinetic_energy:R:1
H   3.4396511516804146E+01   2.8923580429140983E+01   2.4016631134645770E+01   6.2254000620161065E-02   1.4937077124632580E-06
O   1.0037175575074342E-01   3.0862553065413174E+01   2.1558828936285032E+01  -7.1484984110380889E-01   1.4952565392693532E-04
H   3.6300969647473036E-02   3.1401013980000304E+01   2.0721445367635106E+01   4.1658302533457159E-01   5.6815244411799329E-05
H   5.3644763518942318E-01   3.0587524226518212E+01   2.4382841070580412E+01   6.6321803433644022E-02   3.9869660441848058E-06
C   8.5361860582815330E-01   2.9563328337146665E+01   2.4207047480285567E+01   2.7656722399124778E-01   1.8938542122346672E-05
H   1.3681082597581375E+00   3.2600098473497908E+01   2.3215407407308302E+01   4.2361923580156491E-01   4.4907785954688331E-05
H   1.3861940902443739E+00   2.9139179367637411E+01   2.6243172937878263E+01   6.5166617408722205E-02   2.3376185117501986E-06
O   1.6602881403359839E+00   2.9538975570448191E+01   2.2942946413498486E+01  -7.5567844642625737E-01   1.4679319068509658E-05
P   1.7278336217846046E+00   3.0928234550645488E+01   2.1955766825888094E+01   1.4643240097712358E+00   2.6968820121048027E-04
H   1.7775165350903843E+00   2.6861184963768562E+01   2.1879323269406715E+01   5.0733989263827439E-02   5.4838070352290785E-06
C   1.7910194947320761E+00   2.9074469102983208E+01   2.5236185477292750E+01   3.3007801060745923E-01   1.2517981331318922E-05
H   1.7973277180408516E+00   3.2143510332968603E+01   2.1037320165449408E+01  -2.1998396161555589E-01   1.8599554960225224E-05
O   1.9450489505140409E+00   2.7579871238582157E+01   2.4992815330714812E+01  -8.2373504811189147E-01   9.3051039078728149E-06
O   2.1842806404965249E+00   3.2027282152659723E+01   2.3147160148136528E+01  -7.2437454045155025E-01   1.8319489931029398E-04
H   2.2880386399608628E+00   3.0342797567696515E+01   1.9979697813445046E+01   4.2232209705996293E-01   3.6484090896969237E-05
H   2.3143129276785386E+00   2.4703411072099179E+01   2.0399471810060675E+01   4.5247747237200375E-02   3.2309994541438613E-07
H   2.4022804694873865E+00   2.0935877551797258E+01   2.3308909923770877E+01   7.1706648306392173E-02   4.6639160010137671E-06
H   2.6212971222168542E+00   2.7768980171948712E+01   1.9650805402019405E+01   6.3867381609878704E-02   1.0040922222644184E-07
H   2.7081514108209257E+00   1.5000794440455783E+01   2.4208875236792782E+01   7.3399875940193926E-02   2.4905268323610830E-06
O   2.7754507231217778E+00   3.0226003721192349E+01   2.0844035345718215E+01  -7.1606864082437127E-01   1.5942800955621943E-04
H   2.8006662041388384E+00   1.9139741881741788E+01   2.1489684398477145E+01   5.8619581832140555E-02   1.0340246684606469E-06
C   2.8462557876344210E+00   2.7029724685174742E+01   2.2006117888582889E+01   1.3474713170415331E-01   1.0132245796794164E-05
H   3.0446209826223578E+00   2.8096285480557665E+01   2.2051255707254565E+01   6.4375390443466296E-02   2.4485847660357022E-06
H   3.0432517895608919E+00   2.6279902647238679E+01   1.8834382591782862E+01   6.4607462241367486E-02   1.3866401188186191E-06
N   3.1573886766257377E+00   2.4280549678759144E+01   2.2314557039308120E+01  -7.3259036800121180E-01   3.4795580067031072E-05
H   3.1903202183469963E+00   3.0620597372364472E+01   2.4605699052531094E+01   5.1398355399309148E-02   1.4743011099190148E-06
C   3.1709768845935522E+00   2.9640217784839468E+01   2.5078894362305672E+01   3.6783673442170528E-01   3.6787587240247009E-05
C   3.2519927778778301E+00   2.4897194949426606E+01   2.0913449074991437E+01   5.2925768704307075E-01   1.5937592009181281E-05
N   3.2152934844558576E+00   2.6435925464976936E+01   2.3358976558205061E+01  -7.0645992549955494E-01   4.3675652017515247E-05
O   3.2185969449627985E+00   2.4360695719786186E+01   2.4650215239911411E+01  -8.3122313621860311E-01   9.4773888659415117E-06
C   3.3657488467416554E+00   2.7295889916875787E+01   2.4561131100528492E+01   5.6264646169499111E-01   2.6635197766101484E-05
H   3.3651588861202493E+00   2.7050918183462574E+01   2.7566279773623052E+01   6.1798539496759952E-02   2.7349435509898411E-06
C   3.3855052303612276E+00   2.7002289218622874E+01   1.9568440879472600E+01  -1.9814554090446368E-01   4.2709848114933860E-06
C   3.4381241972021628E+00   2.0902821750568421E+01   2.3596751331142322E+01   2.7771979109070122E-01   8.9603866609703326E-05
H   3.6511503180845235E+00   2.3318016843282201E+01   2.2274105986647172E+01   2.8378815229300436E-01   4.5897767902765827E-05
H   4.7878821454395881E+00   2.5011259400871737E+01   2.3526838433829003E+01   6.2543194125107004E-02   4.7318863092098439E-05
H   3.4556537511136014E+00   1.4828770319357602E+01   2.2636753456851494E+01   6.8519266963038672E-02   3.7328880983037105E-06
H   3.6164210129748655E+00   2.1536303949436146E+01   2.4461626229272149E+01   6.3952167039206254E-02   2.2860630111538181E-05
H   3.4976726469734336E+00   1.3316476134564194E+01   2.5632749862739182E+01   4.0688710020783292E-01   2.5288503193386695E-06
N   3.5478639354414603E+00   2.1194218660284697E+01   2.0045189859170996E+01  -7.5397108987440919E-01   2.3348686118470040E-05
C   3.6553954524881687E+00   1.5060668684875434E+01   2.3680518699271069E+01  -1.1226336843752094E-01   6.9351394448267552E-06
C   3.6492123229512767E+00   2.6338285535128914E+01   2.0933957143185538E+01  -8.7764426855656552E-03   2.7641327753235453E-06
H   3.6584749377090424E+00   1.6215515209731837E+01   2.0895990041217484E+01   5.9042768620694352E-02   1.1239641824753691E-06
O   3.5725599772765766E+00   2.9920156365867513E+01   2.6474579687071561E+01  -6.7847923999014270E-01   6.4457042504515041E-05
C   3.7169662001890833E+00   2.5062177748518288E+01   2.3385972258436077E+01   7.4426347704136875E-01   6.0399036469854096E-05
H   3.6995691175352268E+00   2.3475098730099013E+01   2.4592843220962717E+01   4.0878910017773895E-01   3.7231481704068604E-06
H   3.7839877373975370E+00   2.6681932044849056E+01   2.5355051060769405E+01   5.3712580400939847E-02   1.4335451855841180E-06
H   3.8566402008120142E+00   2.0591990753811018E+01   1.9242496165762976E+01   2.7155919479713464E-01   2.7028253694404794E-06
H   3.9638072085491971E+00   2.3160595805366771E+01   2.0412581658848900E+01   4.0960688862096917E-01   6.2717619574794907E-06
C   3.8881028428605693E+00   1.9239002913724626E+01   2.1502757208215737E+01   1.7982109177054983E-01   2.4517666762704506E-05
N   3.9132411538267400E+00   1.9468445007687244E+01   2.3974891973048827E+01  -6.6912993871530091E-01   2.5672836983478335E-05
H   4.0858270096590923E+00   2.2052640097360438E+01   1.9781686359978455E+01   2.7966002661296108E-01   2.4521407642086252E-05
N   3.9277671155119891E+00   1.7311695231518669E+01   2.2717499908145786E+01  -6.6305042939591097E-01   2.7184206456260985E-05
C   4.0133260669855852E+00   2.8618074766966615E+01   2.4336923745051546E+01  -1.0144444828512444E-01   5.0755620358683890E-06
H   4.0084947813549494E+00   2.8894069164435457E+01   2.3282005040692887E+01   7.3621671951952239E-02   1.7430333488038437E-06
H   4.0821380911581073E+00   1.6919668167108735E+01   2.4762254168141460E+01   4.6564555645959960E-02   2.8556001735294095E-06
N   4.0902036732583076E+00   2.1533039644397476E+01   2.2405115604932867E+01  -6.8392004189172262E-01   8.8438509966510111E-05
H   4.1239714008822332E+00   2.7995169051952885E+01   2.8896601125361645E+01   6.7513202330582334E-02   3.4562846128280500E-06
H   5.0940918438450780E+00   3.1481571841101772E+01   2.6685023731418429E+01  -5.2452197570759407E-01   3.3049664279073610E-05
O   4.2395026806616745E+00   2.4109756861386966E+01   2.0209931408883158E+01  -7.8187920154940205E-01   4.4878667706656234E-05
H   4.2835191745914640E+00   2.7474329444090714E+01   1.9183941742987397E+01   6.5508995926955360E-02   8.4272212016083978E-07
C   4.3515468404574804E+00   2.0596517855512214E+01   2.1201618516944713E+01   3.8813614344062586E-01   1.4889282224373489E-05
C   4.2902308452796545E+00   2.7301624271464746E+01   2.8077214925414641E+01   2.8363060928653372E-01   1.4738534447443036E-05
C   4.2913944169540734E+00   1.6400715181569851E+01   2.3826021553232483E+01   5.3922778204188049E-01   1.9379944447525088E-05
O   4.3626518082640491E+00   1.3817902741988812E+01   2.5660905503175581E+01  -7.9609627626297819E-01   1.6655273851200033E-05
C   4.4002810380212338E+00   1.6887711885718076E+01   2.1318137639849031E+01   2.8831561367894665E-01   3.5956831156201128E-05
N   4.4286341942050518E+00   1.8190330962506575E+01   2.0490258535588111E+01  -7.0898666622305662E-01   3.0084750413146568E-05
C   4.4666499000008422E+00   1.8741617673051501E+01   2.2771329573962596E+01   3.9080237785051430E-01   1.3005912043649754E-05
H   4.7481700036325236E+00   1.9639972602340706E+01   2.4586774394697770E+01   2.7195175585885534E-01   2.1130811572964796E-05
H   4.6342474312986282E+00   1.3102579355421449E+01   2.3752431494395672E+01   5.0434400235630505E-02   1.8122926760831605E-06
C   4.6750613891416446E+00   1.4084788481409905E+01   2.4218805462912204E+01   3.4014019334666079E-01   1.2063080564140795E-05
H   4.6927863199184126E+00   2.5495928836991606E+01   2.9204515400534884E+01   6.9257518398326279E-02   2.5321673898847414E-06
H   4.7126942537587606E+00   2.6411694213564157E+01   2.1177286440726991E+01   5.4558495418609132E-02   9.1523861376164115E-07
H   5.0615014791955719E+00   2.1790153698834636E+01   2.2714970339045276E+01   2.7634315283979105E-01   1.0067379335101618E-05
H   5.0575341587540246E+00   2.8568491470856152E+01   2.4633429211019195E+01   8.3424919522954166E-02   1.4349658478943161E-05
O   5.1330187680999151E+00   2.8000174024533049E+01   2.7053703103061252E+01  -7.0888605807944227E-01   2.1950497440655763E-05
P   5.1536316950782668E+00   2.9674350680386684E+01   2.6918495655627819E+01   1.5345290372078590E+00   2.2693524464551706E-04
C   5.1487658200287063E+00   2.6156519045849940E+01   2.8471750026826147E+01   3.3124194091317172E-01   2.8460689196864870E-05
H   4.3666257089672271E+00   1.3160770802358472E+01   2.0910851689281142E+01  -3.8723079475053535E-01   1.2436390693344322E-04
O   5.3011916568344359E+00   2.5288821759964538E+01   2.7214243911505243E+01  -8.1753508096618255E-01   1.4826241110447610E-05
H   5.4230033396424364E+00   2.0653990733489970E+01   2.0993461785577622E+01   5.7068782319786404E-02   8.3654445122795244E-06
H   5.3962545882150588E+00   1.6455034794880522E+01   2.1348511086600539E+01   6.6128405230043374E-02   1.2437650844810682E-06
O   5.4009268202616525E+00   1.3415923163824218E+01   1.9053564377663609E+01  -6.9317334972782696E-01   9.4688102243927313E-05
H   5.4700553316090206E+00   1.8417250533971352E+01   2.0435279686254692E+01   2.6647584111021860E-01   5.1593865225224551E-06
O   5.4691821684543216E+00   3.0219530818137478E+01   2.8451168505452678E+01  -6.4754700022978007E-01   8.4354725719511665E-05
H   5.4790992852251694E+00   2.3905868418982145E+01   2.4750986155280877E+01   5.6281481989211346E-02   1.3058869349634518E-06
H   5.5598516190591525E+00   1.8749393986173889E+01   2.2809887095293270E+01   5.3164657941641380E-02   1.1251191253725940E-06
H   5.6543893944659107E+00   2.3551413432113186E+01   2.2056470657525256E+01   5.9910872083638322E-02   2.5423901574237009E-06
H   5.6930485567656319E+00   2.5899381940766766E+01   2.3012713381413683E+01   2.8476788907297568E-01   5.5672235745381166E-06
O   5.7764271061382670E+00   1.6177699946212165E+01   2.3823125599107545E+01  -8.0462419684379682E-01   1.2300032384727047E-05
H   5.7595262750412637E+00   2.1457218954443764E+01   2.4129492040690245E+01   6.5164219297402237E-02   3.1707736686971898E-06
H   5.8896285514950213E+00   1.4133075927903985E+01   1.8558011753043630E+01   4.2246969621252828E-01   5.0376812866211909E-05
H   5.8186915658282503E+00   2.6800414626868033E+01   2.5059936362817155E+01   6.7060781347637932E-02   9.7563594853314743E-06
O   5.8917870938526580E+00   1.4299104681209434E+01   2.1804495483495035E+01  -6.8774448493420959E-01   8.0733487088928478E-05
O   5.8876780784826490E+00   1.1595036329291675E+01   2.1114855441476600E+01  -6.5085110226405885E-01   1.2757319125927924E-04
H   5.9240530610733355E+00   1.9705079355093883E+01   1.8397405267231878E+01   5.3869869419556959E-02   4.9811560095619198E-07
C   6.0337791386542214E+00   1.4710754385762023E+01   2.4106766495336714E+01   3.3071452364519871E-01   3.1109573335894931E-05
P   6.0229766345288684E+00   1.3155080702449332E+01   2.0587532691937177E+01   1.4894488268647619E+00   3.0765881115980565E-04
H   6.1929233987586505E+00   2.9640328678536257E+01   2.8824653555528062E+01   4.1662370403532623E-01   4.9472971705123852E-05
H   6.2699571248470054E+00   1.5358171664726193E+01   1.9558380624284890E+01   8.6448686953817355E-02   7.7953165171759086E-06
H   6.3913793436588380E+00   2.9206312418926185E+01   2.5134484874251427E+01   4.1863509092635454E-01   2.5835504520811521E-05
O   6.4023740456397373E+00   2.9904304123056647E+01   2.5851348681570357E+01  -6.5366346934662367E-01   7.4983984591709294E-05
H   6.5990112342764542E+00   1.1055435095200220E+01   2.0677395909360200E+01   4.1408626865635756E-01   3.4279282514916980E-05
C   6.5420772378813865E+00   2.6637164934578458E+01   2.8799509493130305E+01   3.6414418986814390E-01   4.0528491768235043E-05
H   6.6511127259930074E+00   1.7487792828854325E+01   1.8107541636910199E+01   5.9352230201271006E-02   3.1465326320961006E-06
H   6.5690122849026205E+00   2.7693197696644649E+01   2.9078894947390076E+01   4.7591885806194001E-02   6.5451748566642778E-06
C   6.5642254736052825E+00   2.4010587930730658E+01   2.4690409298792410E+01   3.8506439576834461E-01   1.3139494768250310E-05
H   6.5888528047494432E+00   1.9742125059503092E+01   1.6120131176621644E+01   6.5631809567147092E-02   9.0141334828035074E-07
H   6.6210644131827898E+00   1.4708893305340725E+01   2.5022419261554198E+01   6.4645555763728435E-02   6.6789995007281597E-06
N   6.7104062352975111E+00   2.5930001501241705E+01   2.3268942226708148E+01  -7.3005816821343306E-01   5.7126898300922900E-05
C   6.7788474237545575E+00   2.5155635584141130E+01   2.6962679078550416E+01   5.3882036908761055E-01   2.0242287190571319E-05
C   6.8048060149157683E+00   1.4179560609409057E+01   2.2951374196428652E+01   2.7136349293877648E-01   7.7328472757065065E-05
C   6.7209037377344698E+00   2.3572171984445603E+01   2.2289244666734920E+01   3.8687812018640333E-01   9.8635893698601532E-06
C   6.7647960594984520E+00   2.6376995765887234E+01   2.4735431020749981E+01   2.9297151894993112E-01   2.9015849673097125E-05
H   6.6430559825191811E+00   2.1502649729294177E+01   2.2035445998447685E+01   2.7673848441661475E-01   1.3451299856732513E-05
C   6.8269147219045365E+00   2.1672123019586500E+01   2.4063373028826689E+01   3.0132237851661525E-01   2.1041167144310447E-05
H   6.6877358011672587E+00   2.2411229091801150E+01   2.5954209354935056E+01   2.7130061030994046E-01   5.0888789451337125E-06
O   6.9365552461040973E+00   2.5928782109504944E+01   3.0062417913067865E+01  -7.1232698826215568E-01   1.5411766516501861E-05
C   7.0037111796467411E+00   1.9605922140129760E+01   1.8257478002847183E+01  -8.9126988424315101E-03   6.9720098002388653E-06
H   6.9540183107852389E+00   2.3109947001381389E+01   2.9226973785016533E+01   5.9283557711643065E-02   1.1472887255472842E-06
H   7.0486078654175230E+00   1.3127812476565401E+01   2.3079458386097912E+01   6.2312123712973566E-02   8.4927603053590064E-07
N   7.0950213144900678E+00   2.5121865001122451E+01   2.5533394277227771E+01  -6.2382861588276661E-01   2.8835104897180471E-05
H   7.0545732773096290E+00   2.4188367976234932E+01   2.7386077978590709E+01   4.6638708659182404E-02   1.0874133355028476E-06
O   7.0772759813720780E+00   2.1821394271429483E+01   1.9215505602246676E+01  -7.8139192967850590E-01   1.9556399694509627E-05
C   7.1403714337795590E+00   2.4442346825431724E+01   2.3394300896893089E+01   1.7601061803542795E-01   2.7621438805433614E-05
N   7.2193905430750327E+00   2.2714602790157052E+01   2.5100804142767586E+01  -6.6863105575730053E-01   2.7530101128677903E-05
N   7.2194949270922661E+00   2.2148005369713239E+01   2.2655155653152562E+01  -7.1650227760713658E-01   2.9488490379269583E-05
H   7.0129557780207401E+00   2.3528335347592893E+01   2.0259295795432024E+01   2.8168832695656798E-01   3.2379111343626481E-05
H   7.1819192909994847E+00   2.4944503265758499E+01   2.0900514805536353E+01   2.7249701614773603E-01   1.2983231018207659E-05
C   7.3199494482023821E+00   1.5463426830305981E+01   1.9301580345802897E+01  -1.0530094523634759E-01   8.8693268644860842E-06
H   7.3595518790211258E+00   1.5820359888905795E+01   1.8273965393598274E+01   7.6227636084221229E-02   9.1066115988248433E-06
H   7.3499810116498780E+00   2.7212673834318444E+01   2.6934757840350105E+01   7.1838502048995112E-02   2.3205971493591365E-06
C   7.3800645939540583E+00   2.0004594209147349E+01   1.6814792178896067E+01  -1.9594232355437313E-01   6.3490845107280535E-07
C   7.4032242322246722E+00   2.6346239488036829E+01   2.7594316381868751E+01  -1.0041479079725324E-01   8.9132790299372097E-06
H   7.4259605199184300E+00   2.0779201116720255E+01   2.4243082761228379E+01   5.6611906730729578E-02   7.9918231929404413E-07
C   7.4110186221607925E+00   1.8158208391852575E+01   1.8497129781423890E+01   1.1408789611487613E-01   2.8404187349224646E-05
N   7.5256209176527724E+00   2.3965469914921187E+01   2.1059077014960796E+01  -7.5911344995102681E-01   2.1848409722469814E-05
H   7.4945081124968143E+00   2.2246255344429770E+01   2.0029188125056749E+01   4.1418456921383240E-01   3.6778501879622737E-06
N   7.5081925069043693E+00   2.0085362892548886E+01   2.0684728493836943E+01  -6.9214024829678777E-01   2.0553134077098492E-05
N   7.5042306887655101E+00   1.7799942962479761E+01   2.0009358793596217E+01  -6.6758077709279107E-01   8.6687604344638100E-05
H   7.5751749455921242E+00   2.1069978845311827E+01   1.6737188345187700E+01   6.4917958145003007E-02   1.1265775317666254E-05
H   7.5955538687341706E+00   2.7072118261364672E+01   2.4827625861024728E+01   5.5238361690038817E-02   9.9275507752558187E-06
H   7.2510097814614625E+00   1.9010526376424547E+01   2.2706285436605903E+01   4.0362383865156293E-01   6.3037624287792671E-05
H   7.6953080949033383E+00   1.4755433766651972E+01   2.2706830721479832E+01   5.6093543362343290E-02   3.7644619827546537E-07
H   7.6422472933533223E+00   2.3284831103468843E+01   3.0879360337304650E+01   6.4225379527443560E-02   1.4558341231984895E-05
C   7.7030925678467579E+00   2.0513201984163064E+01   1.9217067478630366E+01   5.2438186912845275E-01   1.2526299274339131E-05
O   7.7136066773818950E+00   1.3260813689137152E+01   2.0408989687926056E+01  -7.3160272765171896E-01   1.7420081739914580E-05
H   7.6919076912237232E+00   1.6173187776545529E+01   2.1315819525579872E+01   4.6824892792733719E-02   5.5164304570165130E-07
C   7.8606321105378862E+00   2.3127851589229230E+01   2.9826210424114265E+01   2.7805387932552250E-01   5.9009832682087829E-05
O   7.9651644105344701E+00   1.8388442577517655E+01   2.2384218430663093E+01  -3.7653086828725968E-01   1.6768472631813263E-06
C   7.9357165215652952E+00   1.6388941069082328E+01   2.0270848858974325E+01   5.3942324083782101E-01   2.6408289953731071E-05
H   8.1204524199343417E+00   2.0783089140089437E+01   2.1189488665900669E+01   2.7079524577623149E-01   2.2906220703216730E-05
H   7.4817208901089121E+00   1.7557667771927264E+01   2.2108242350386259E+01   4.0747114827639752E-01   1.7662451270715796E-04
H   8.0964940413680715E+00   1.3619619245422779E+01   1.8436268266772235E+01   4.9975100981607512E-02   5.0493396273683924E-06
C   8.1608147148384340E+00   1.4215135524840745E+01   1.9344983252730550E+01   3.6005921148867515E-01   2.6279714124687207E-05
C   8.3806934828023341E+00   1.8845459284616236E+01   2.0799374352612595E+01  -4.2856817647626499E-02   9.9243800158610470E-05
H   8.2279660413985454E+00   2.4499488242625219E+01   2.3466726589972311E+01   5.7960329007345823E-02   7.6563581177864249E-06
H   8.2857383787751804E+00   1.9490067162604866E+01   1.6506303417217733E+01   6.3530663252251207E-02   2.0158018442702167E-07
H   8.3497321934113042E+00   2.1023225899979078E+01   2.9956468180085089E+01   6.5349670299999940E-02   8.3903687150078245E-07
H   8.3714528816289331E+00   1.7913069348527028E+01   1.8041118167837872E+01   5.4847917521358758E-02   6.3088084916337857E-06
H   8.3918066989947295E+00   2.6224753800854451E+01   3.2291273602388607E+01   4.1937822505917943E-01   3.3027161946694621E-05
H   8.4568034361140700E+00   2.6150766994336347E+01   2.7773569335731018E+01   8.6338590539223214E-02   1.4261505464385979E-05
P   8.5926866823694148E+00   2.5656312434047685E+01   3.0230367829235085E+01   1.5551279737285899E+00   1.9336242109805089E-04
H   8.7626551580607366E+00   2.0639249422604962E+01   1.9006208707570966E+01   5.0399194385357782E-02   4.1214017195591951E-06
O   8.6627934536497779E+00   2.4262066953357490E+01   2.9336369208623154E+01  -6.6199810315039720E-01   7.2120976181886092E-05
C   8.7745349131159234E+00   2.1972594121064141E+01   2.9640265557770633E+01   3.2727538330373829E-01   2.0379544590206954E-05
O   8.7920517841854675E+00   2.5429123725964324E+01   3.1848766547898165E+01  -6.3008184290979763E-01   8.8505018139811505E-05
O   8.8384016985642369E+00   1.6317350426579338E+01   1.4824800916949197E+01  -6.7737260663521681E-01   5.8458141059958698E-05
H   8.8531929699695446E+00   2.7339666744027763E+01   2.8853673068943003E+01   4.2147665546924984E-01   3.2092948709834769E-05
H   8.8609481573002231E+00   2.4363841870546544E+01   2.5062113924597710E+01   2.7277709688533414E-01   8.4317367313976536E-06
H   7.7812547055795926E+00   1.5212618855441162E+01   1.6412729990230513E+01  -5.7044059250662382E-01   2.4493198658670512E-05
O   8.9660637844802871E+00   2.1832414939937483E+01   2.8136082059435829E+01  -8.1146605485210799E-01   1.0641569551016582E-05
H   9.1252859602362975E+00   2.2006080887980289E+01   2.5376100497317321E+01   5.4817550885132960E-02   9.1602959926885070E-07
H   9.1807480320116159E+00   2.4214666583989196E+01   2.7188449846520829E+01   6.6312429361996994E-02   1.1721623952490822E-05
H   9.2830899938592726E+00   1.7211522462586395E+01   1.4787375669508700E+01   4.2533532901528481E-01   3.7971197054638563E-05
O   9.2951252167386542E+00   1.3720119433423910E+01   1.5550162962085828E+01  -6.3091398388160957E-01   9.5585125665413175E-05
H   9.2337287481879748E+00   2.3073422883323069E+01   2.2766463427065560E+01   6.1190293394198458E-02   2.1181962451189613E-06
H   1.0403425489586166E+01   2.5195704922576667E+01   3.0243630163553842E+01  -5.5990607115462354E-01   5.4695286272254990E-05
O   9.3243813581290205E+00   2.7042368876499580E+01   2.9683868183306249E+01  -6.6116784790503935E-01   7.1430062899152939E-05
O   9.4129578054559033E+00   1.6105720162562207E+01   2.0176501681612212E+01  -8.1605583176190155E-01   3.5631643952525023E-05
H   9.4080537759859268E+00   2.2024275280772571E+01   1.7541045256138283E+01   5.4229283207628987E-02   9.3482417545265235E-07
H   9.4615007136026232E+00   1.3657193093325157E+01   1.4568946310819936E+01   4.2131752485843343E-01   4.1465457243158297E-05
H   9.4217442769793323E+00   2.0574562871729142E+01   2.3383120915412338E+01   6.1058377381747797E-02   5.2520921992969607E-06
O   9.5708059600812909E+00   1.5617991000076108E+01   1.7553208767175313E+01  -6.7201633302883135E-01   4.9768504915784098E-05
C   9.5571807933713266E+00   1.4663070516123698E+01   1.9664305800014905E+01   3.3668368360533618E-01   2.7323566800034203E-05
P   9.5908385341053322E+00   1.5297578420925948E+01   1.5918048780309846E+01   1.5730848516787761E+00   1.9167581698344472E-04
H   9.6789822747304850E+00   1.7658457117252752E+01   1.6276557939556639E+01   9.1463188117752336E-02   3.2084766209588838E-06
N   9.9042811067546683E+00   2.4543730021629560E+01   2.5199525109512781E+01  -7.2521554843677727E-01   4.0453462675484710E-05
H   1.0044851929023194E+01   1.4136749592675743E+01   2.0480294687575835E+01   6.8285338558581543E-02   1.8796131054670764E-06
H   1.0136815506014104E+01   2.3019169902296419E+01   3.0977630785047999E+01   4.7865444070536389E-02   6.5078422081951032E-07
C   1.0127637412814815E+01   2.4156221895301048E+01   2.6659748278660132E+01   2.8803551356495349E-01   4.7543073001920551E-05
C   1.0148571342387411E+01   2.2249021198555567E+01   3.0203850583054201E+01   3.5684117759482259E-01   5.0604583499805492E-05
H   1.0178717158303272E+01   2.3751048165244264E+01   1.6183111191626523E+01   6.5994748225756239E-02   1.9661959008718610E-06
C   1.0195897216709515E+01   2.2208483505606615E+01   2.5328663826172381E+01   3.6915531418311875E-01   1.3565211882230921E-05
H   1.0279461036889366E+01   1.8988831814715166E+01   2.8657819721983202E+01   5.5426348071762499E-02   9.5693885076164682E-06
C   1.0278703666114275E+01   2.3167085089901612E+01   2.3051487703909338E+01   3.7599925584954352E-01   2.2955762335433633E-05
C   1.0393629307706131E+01   1.4781694265859425E+01   1.8442862119033894E+01   2.7969221273639189E-01   5.9104684143143621E-05
H   1.0415619702576903E+01   2.0533202879520260E+01   1.5965914367775447E+01   5.2748762944617167E-02   1.9712674089805290E-05
C   1.0441831436066817E+01   2.1937392828959254E+01   2.7846232600252222E+01   5.3130760285127998E-01   2.2046713730509263E-05
C   1.0500551736078981E+01   2.2032483587991443E+01   1.7508870889030781E+01  -1.4835258873890922E-02   5.7849231509619675E-06
H   1.0444291809987023E+01   2.5139127038670409E+01   2.2627390076038164E+01   2.7210502646901702E-01   6.6747461039891302E-06
C   1.0500895309646214E+01   2.0686902018575122E+01   2.3468547335323940E+01   3.0576206854660670E-01   1.7514270411007122E-05
H   1.0554074952079691E+01   1.3826433721811295E+01   1.7950390496110376E+01   6.3795142525882920E-02   1.4664318208279460E-06
O   1.0527997266501453E+01   2.1022011836801013E+01   3.0969591314095414E+01  -7.3271489753908625E-01   3.1773477923250727E-05
O   1.0552448363808731E+01   2.3358439155052118E+01   1.9528381085069533E+01  -7.7704118187851723E-01   2.8753095165963852E-05
C   1.0582103055974381E+01   2.3361894695207713E+01   2.4473534987152512E+01   1.6954966760860390E-01   1.9209212700053095E-05
H   1.0468714721680252E+01   2.0169785317136327E+01   2.5462314664379747E+01   2.7113253166079665E-01   2.2818760796384304E-05
N   1.0706700769222104E+01   2.2739062676293603E+01   2.6639824090900660E+01  -6.4187387572795274E-01   2.3235841186662213E-05
H   1.0696765156456102E+01   1.8809424503706889E+01   1.5447997769007003E+01   7.4032064060119085E-02   3.2773176265054179E-06
N   1.0588868792255226E+01   2.1008572625921495E+01   1.9836457682704808E+01  -7.4765977507062509E-01   4.1560619481955203E-05
H   1.0516922234010210E+01   2.4273276209934703E+01   2.1316944167980779E+01   2.8018713834932440E-01   2.0338664158174818E-05
C   1.0712657714425493E+01   1.7933551271426921E+01   1.6092867231379287E+01  -1.0230695929188194E-01   1.8857352166064999E-05
H   1.0599408998375235E+01   2.1683755071191413E+01   2.1715227760706131E+01   2.8656062327931531E-01   3.7116183474479198E-06
H   1.0764533107398085E+01   2.0914969579441927E+01   2.7645250192258480E+01   4.9030687400385187E-02   2.8755597857340227E-07
N   1.0751483356510425E+01   1.9579444433211734E+01   1.7821270821147628E+01  -6.3498364600932966E-01   5.3490327021380805E-05
N   1.0922033796434125E+01   2.0948403250574032E+01   2.4922501865251615E+01  -6.7591382845048464E-01   1.3423104126600681E-05
H   1.0905857071918968E+01   2.3256258096649884E+01   2.0463272841832950E+01   4.1212086790934876E-01   3.2942585142966962E-06
H   1.0885875226570846E+01   2.4810810204634674E+01   2.7081947664512178E+01   5.4615994544815916E-02   6.5256105345333471E-06
H   1.0903139221805491E+01   1.8322073937869323E+01   3.0197241386420515E+01   6.3976415895546035E-02   1.2841265440927752E-06
N   1.0953168784672560E+01   2.4294934315103443E+01   2.2267223035532648E+01  -7.6400315360193893E-01   1.9539019767425168E-05
N   1.1016440239577733E+01   2.1865579139202872E+01   2.2662263726572828E+01  -7.2387816534006433E-01   2.3499124184291312E-05
O   1.0869487938081781E+01   1.8539483530205029E+01   2.0622160087353862E+01  -1.3976657708491151E+00   1.1133686056326770E-03
C   1.0986796776191003E+01   2.0745833423317087E+01   1.6866223999829842E+01   9.1843748894044452E-02   1.2136686488697054E-04
C   1.0997022496403503E+01   2.3232976439467237E+01   1.6672259832907216E+01  -1.9966585479637011E-01   2.6952629325468208E-06
H   1.1005692431946905E+01   2.3690655871326033E+01   2.8938932827483818E+01   7.0529615432995851E-02   4.5414433751264355E-06
H   1.1762185621920427E+01   1.8916135263680186E+01   1.9312552897374747E+01   1.1803485941622527E-01   3.2418120358900659E-04
C   1.1042107639307751E+01   2.2152689404941860E+01   1.8896985128807835E+01   5.1327335158947918E-01   8.5449061493822731E-06
H   1.1030292072325762E+01   1.9093208369777940E+01   2.1459389845247216E+01   4.0997176457234019E-01   1.3775921185725373E-05
H   1.1043373645426296E+01   1.9811841498780037E+01   2.3113790000329434E+01   5.9980011632358776E-02   9.7252565790221016E-06
C   1.1044458019620626E+01   2.2603813038877458E+01   2.9042066920821679E+01  -1.0522640241039305E-01   6.0306158918127972E-06
H   1.1252766553140669E+01   2.1184816536657078E+01   2.0651121121558447E+01   2.8516252413933652E-01   2.4987581546890034E-06
H   1.1152496752819307E+01   1.7534813981661699E+01   1.8192720091266843E+01   5.0099897037069741E-02   2.9848490928575442E-06
O   1.1255218945225961E+01   1.5490798150265285E+01   1.5713934517277572E+01  -7.0793980174981641E-01   7.8542591258819876E-06