294
Lattice="       9.640e0       0.0000000000000000       0.0000000000000000       0.0000000000000000      16.72e0       0.0000000000000000       0.0000000000000000       0.0000000000000000      18.0e0" Properties=species:S:1:pos:R:3:charge:R:1:kinetic_energy:R:1
Mo	1.595665052827931E-06	1.841930255058828	15.21488436638729	0.4987858269668513	0.08125725379638227
S	1.595159595654216	0.9209637456017391	16.77976873434425	-0.2494889014597756	0.2277074165347817
S	1.595159595067071	0.9209637457410053	13.64999999949969	-0.2494898832179473	0.03087119981605037
S	1.595445109313979E-06	3.683857745557777	16.77976873594613	-0.2494553259104872	0.01946264372684324
S	1.595355254120717E-06	3.683857746137325	13.65000000087411	-0.2494529174648203	0.1313008022787856
Mo	1.595156405007204	4.604824254766184	15.21488436879845	0.4988299619241632	0.1355954047711506
Mo	1.595674404749087E-06	7.367718254518011	15.21488436624158	0.4988139640447313	0.0983750799385832
S	1.59515959527875	6.446751745580134	16.77976873283689	-0.2493855648481951	0.03850610208524454
S	1.595159595190619	6.446751745898736	13.65000000162654	-0.2494223104431699	0.02055833792421679
S	1.595668874474867E-06	9.209645745355255	16.77976873435289	-0.2494625879626993	0.02306856031536325
S	1.595069884253062E-06	9.20964574550643	13.65000000104381	-0.2494629017847165	0.2215941482823415
Mo	1.595156404925115	10.13061225486253	15.21488436762601	0.4988461873333607	0.08380346939974449
Mo	1.595618730501278E-06	12.89350625510432	15.21488436591811	0.4988097827148774	0.03387337397413258
S	1.595159595317371	11.97253974637547	16.77976873435571	-0.249433290619792	0.13268782445792
S	1.595159595129816	11.97253974581755	13.64999999951341	-0.2494358976723223	0.08878447974957379
S	1.59539896378225E-06	14.73543374548853	16.779768736307	-0.2494589602860886	0.1220600072619005
S	1.595387557679166E-06	14.73543374592603	13.65000000088995	-0.2494537667850603	0.02869151368119553
Mo	1.595156404903454	15.65640025496414	15.21488436751498	0.498980954928343	0.05955022092596229
Mo	3.190317595383145	1.84193025435351	15.21488436631842	0.4988095092472609	0.04707013936601168
S	4.785475595257775	0.9209637455813277	16.77976873416783	-0.2495357818508053	0.02873373810661466
S	4.785475595426856	0.9209637463052155	13.65000000154242	-0.2494989712465054	0.0692218950394986
S	3.19031759543886	3.683857745503377	16.77976873446733	-0.2494356102911297	0.03480594853854017
S	3.190317595395267	3.683857745931774	13.64999999976627	-0.2494328001900925	0.03046763415140778
Mo	4.785472405250608	4.604824254809109	15.21488436911253	0.4988743678629612	0.01333800617641123
Mo	3.190317595632354	7.36771825507224	15.21488436735596	0.498851466056907	0.04090564793611863
S	4.785475595681831	6.446751746199734	16.77976873286422	-0.2494334706130914	0.09974586922873928
S	4.785475595428289	6.44675174633178	13.64999999955592	-0.2494313659417529	0.05649798575464869
S	3.190317595739763	9.209645745439383	16.77976873625592	-0.2494203380680311	0.1094286710972079
S	3.190317594965833	9.209645745475649	13.64999999941722	-0.2494177421608015	0.06088330991384932
Mo	4.785472404952086	10.13061225422217	15.21488436907998	0.4988717757407359	0.03757185519887514
Mo	3.190317595731163	12.89350625509439	15.21488436765131	0.4988505144875823	0.08855749309036605
S	4.785475595282874	11.9725397455688	16.77976873319939	-0.2494327654353059	0.01030270037801989
S	4.785475595147067	11.97253974646176	13.64999999991291	-0.2494321298390085	0.0943852271123711
S	3.190317595783234	14.7354337453884	16.77976873486218	-0.2494236246056802	0.1050696445840496
S	3.190317595073523	14.73543374600061	13.64999999980203	-0.2494290070839487	0.1355826193031572
Mo	4.785472404923611	15.65640025419365	15.21488436913388	0.4990233520500933	0.05714552575701443
Mo	6.380633595304476	1.841930254454481	15.21488436634268	0.4988390737337145	0.06893834848786126
S	7.975791595253003	0.9209637461426212	16.77976873464815	-0.2494025852241482	0.007046274114393253
S	7.975791595144126	0.9209637463127186	13.65000000114095	-0.2494388889777586	0.03835845539963516
S	6.380633595770667	3.683857745468135	16.77976873495321	-0.249424286740215	0.121189587244275
S	6.380633595324299	3.683857745533791	13.65000000112843	-0.2494296237130156	0.05259453566125639
Mo	7.975788405230689	4.604824254286867	15.21488436915427	0.4989271805028963	0.04167876914811586
Mo	6.380633595292229	7.367718254504093	15.21488436764642	0.498863393751841	0.02955053413601147
S	7.975791595345139	6.44675174578845	16.77976873273778	-0.249443785195659	0.1317263402524887
S	7.975791595130163	6.446751745911397	13.64999999985148	-0.2494096022705063	0.02517548747599216
S	6.380633595422831	9.209645746018033	16.77976873445547	-0.2494319069379269	0.06856242687856824
S	6.380633595363161	9.209645745924242	13.65	-0.2494343187523622	0.06488360688514902
Mo	7.975788404914135	10.13061225478516	15.21488436856914	0.4989114237953629	0.03766694504107342
Mo	6.380633595318961	12.89350625509699	15.21488436761375	0.4988666947158595	0.05909273598719818
S	7.975791595587667	11.97253974558817	16.77976873449149	-0.2493996204040156	0.06511447865364386
S	7.975791595476073	11.97253974621477	13.65000000107193	-0.2493976414547268	0.06470082345839087
S	6.380633595426787	14.73543374597285	16.77976873448176	-0.2494205501944213	0.04632925195316968
S	6.380633595009355	14.73543374598943	13.65000000107757	-0.2494203463520916	0.1847981470422571
Mo	7.975788405309665	15.65640025422908	15.21488436860296	0.4990236421468097	0.02316713823501681
Al   3.5522590302685291E-10   1.6719999999803512E+01   4.4907450700743698E+00   7.4944062296413039E-01   5.7915290064155356E-02
Al   9.6399999999787909E+00   1.6719999999966312E+01   1.8342548428669163E+00   7.4932216348662450E-01   5.2183095820018253E-02
Al   4.4683975731179939E-10   5.7930302259919915E-10   8.1592450191101502E+00   7.4921234402326986E-01   2.5427101343552364E-02
Al   2.4163360479141375E-10   1.6719999999835590E+01   1.0815744982498408E+01   7.4940405473500027E-01   7.6790720148371586E-02
Al   2.4100000519618794E+00   1.3933366626621508E+00   8.7074181697566804E+00   7.4934195673147119E-01   1.0367466099518541E-01
Al   2.4100000526336851E+00   1.3933366627377901E+00   6.0509182066633089E+00   7.4952467162601000E-01   7.5480129971012305E-02
Al   2.4100000521532365E+00   1.3933366620302507E+00   1.2375888906696236E+01   7.4956553485286470E-01   9.1055701536726322E-03
Al   2.4100000524513092E+00   1.3933366619034662E+00   2.3824182559941125E+00   7.4932785078484976E-01   1.8134088623543661E-02
O   1.4604559797935972E+00   1.6719999999618523E+01   3.1624999560715525E+00  -4.9910921991170731E-01   8.3765298276994485E-02
O   1.6797669976973992E+00   2.9134564924738253E+00   3.1624999555744604E+00  -4.9957372366254393E-01   6.0245559453682263E-02
O   3.3595441246867157E+00   6.0092172296454370E-10   9.4874998684353216E+00  -4.9918463410855995E-01   2.4763221183398662E-01
O   7.3023305471346212E-01   1.2665433513362334E+00   9.4874998681330140E+00  -4.9958648036267483E-01   7.1662718533289801E-02
O   3.8704560320713193E+00   1.3933366627108519E+00   7.3791633196940367E+00  -4.9917461941100427E-01   1.7776376222641785E-01
O   1.6797669971317395E+00   2.6598698691878706E+00   7.3791633194200603E+00  -4.9994705600940215E-01   1.7419519141561781E-02
O   1.6797669971322158E+00   1.2679331161577476E-01   7.3791633197688817E+00  -4.9953106039387407E-01   5.8226994900310268E-02
O   9.4954407292581322E-01   1.3933366621193328E+00   1.0541634060225742E+00  -4.9920488070314128E-01   4.8406929614139491E-02
O   3.1402331073425529E+00   1.2679331132605901E-01   1.0541634057803597E+00  -4.9992763104516502E-01   2.7899549902290249E-02
O   3.1402331074819370E+00   2.6598698682320530E+00   1.0541634069715464E+00  -4.9995729555091728E-01   1.2661805560434169E-01
O   1.4604559797750061E+00   2.7866631807974800E+00   1.1595816944195473E+01  -4.9906797642584522E-01   1.5099980132720064E-01
O   7.3023305519476256E-01   1.5201299742454637E+00   5.2708365073205803E+00  -4.9997765552381335E-01   1.7377229703210195E-01
O   7.3023305527929705E-01   4.0532065310536431E+00   5.2708365060895863E+00  -4.9994130296099648E-01   4.9572114032055963E-02
Al   4.8200001047145733E+00   2.7866631807568640E+00   2.7408170782952773E-01   7.4952089540246325E-01   1.6686254298235234E-01
Al   4.8200001043288188E+00   2.7866631799768644E+00   1.0267620519200428E+01   7.4938398316825028E-01   4.8872347837873364E-02
Al   4.8200001041547056E+00   2.7866631807990760E+00   3.9425816570198937E+00   7.4925388514646984E-01   8.8514247352947273E-02
Al   4.8200001047573746E+00   2.7866631796865602E+00   6.5990816197999580E+00   7.4927530207084692E-01   5.0825032703764511E-02
O   4.0897670497269560E+00   1.2665433513686422E+00   3.1624999557356954E+00  -4.9953644818356846E-01   2.6314382005249814E-03
O   3.1402331069192373E+00   2.9134564925475774E+00   9.4874998681414109E+00  -4.9993412478394461E-01   2.1238509633926583E-01
O   4.0897670494052507E+00   4.0532065304637337E+00   1.1595816943453174E+01  -4.9953555466958033E-01   1.4744633602346502E-01
O   4.0897670492812637E+00   1.5201299743893826E+00   1.1595816943223380E+01  -4.9991607040725494E-01   4.6237387912918981E-02
O   3.3595441250915807E+00   2.7866631799106596E+00   5.2708365059824036E+00  -4.9914627297188474E-01   7.6302272121717432E-02
O   9.4954407302312982E-01   4.1799998429935972E+00   9.4874998681753056E+00  -4.9918604827705071E-01   2.9329929548103671E-02
O   1.4604559799066887E+00   5.5733365051432218E+00   7.3791633196020969E+00  -4.9917120009108462E-01   5.8896323786983555E-02
O   7.3023305520001502E-01   4.3067931546475959E+00   1.0541634074220090E+00  -4.9956408406443842E-01   2.6464796079535939E-02
O   7.3023305471891886E-01   6.8398697113111648E+00   1.0541634071780968E+00  -4.9954965802581697E-01   1.4403444922344105E-01
Al   2.4100000525222374E+00   4.1799998428163994E+00   4.4907450689869517E+00   7.4943890467686503E-01   6.3448672252314556E-02
Al   2.4100000519531979E+00   4.1799998421139044E+00   1.8342548440295567E+00   7.4939601613330931E-01   5.6612730577433386E-02
Al   2.4100000519490110E+00   4.1799998420338609E+00   8.1592450180348823E+00   7.4943059878050677E-01   2.3017740315767820E-02
Al   2.4100000526218235E+00   4.1799998429394369E+00   1.0815744981161359E+01   7.4942631196243559E-01   5.4850370669600967E-02
Al   4.8200001043328369E+00   5.5733365049443604E+00   8.7074181688002792E+00   7.4926954542493274E-01   2.0329242929012681E-01
Al   4.8200001046007728E+00   5.5733365042996672E+00   6.0509182052133719E+00   7.4927840275217283E-01   1.1142231866796701E-01
Al   4.8200001046356684E+00   5.5733365049682106E+00   1.2375888906227882E+01   7.4936263482061172E-01   7.1542682165199781E-02
Al   4.8200001047085435E+00   5.5733365042986707E+00   2.3824182563754097E+00   7.4935474601963170E-01   7.7535746688791735E-02
Al   2.4100000520472027E+00   6.9666630230460402E+00   2.7408170739062571E-01   7.4940470262455872E-01   4.4124509244562120E-02
Al   2.4100000525338894E+00   6.9666630220340693E+00   1.0267620519247806E+01   7.4926031759977363E-01   2.1449916740541530E-01
Al   2.4100000524405578E+00   6.9666630227794686E+00   3.9425816557717814E+00   7.4933340683835681E-01   9.0192990453648730E-02
Al   2.4100000525081349E+00   6.9666630220388921E+00   6.5990816184448366E+00   7.4929940944403661E-01   7.6303790735352095E-02
O   3.8704560321091241E+00   4.1799998429250520E+00   3.1624999568299828E+00  -4.9917228292646865E-01   1.8360655499962731E-02
O   1.6797669971299847E+00   5.4465431934032420E+00   3.1624999559058899E+00  -4.9992230000377180E-01   3.4334477923116252E-02
O   4.0897670494327452E+00   7.0934563344522426E+00   3.1624999557953029E+00  -4.9958525226137329E-01   8.9799304632927096E-02
O   7.3023305537695726E-01   7.0934563344889208E+00   9.4874998680255285E+00  -4.9996853880111836E-01   3.7592933364656793E-02
O   3.1402331075389771E+00   5.4465431925813652E+00   9.4874998685281806E+00  -4.9957825100988451E-01   2.0384597326037441E-02
O   4.0897670497681791E+00   6.8398697106334003E+00   7.3791633181727265E+00  -4.9960289256140999E-01   3.8733983135906959E-02
O   4.0897670492141049E+00   4.3067931543254980E+00   7.3791633194876258E+00  -4.9997577626472456E-01   4.3098545364569363E-02
O   3.3595441252681244E+00   5.5733365051335175E+00   1.0541634074220243E+00  -4.9911822502851777E-01   4.4296113155557801E-02
O   3.8704560314805607E+00   6.9666630229906898E+00   1.1595816944699679E+01  -4.9916186236418980E-01   6.3101065900175016E-02
O   1.6797669971615112E+00   8.2332063726112139E+00   1.1595816942955212E+01  -4.9959576825647822E-01   2.2275436056307182E-01
O   1.6797669975535956E+00   5.7001298160554290E+00   1.1595816943036121E+01  -4.9992169363446237E-01   7.7711075102324847E-02
O   9.4954407263353735E-01   6.9666630230721269E+00   5.2708365067733007E+00  -4.9908158000982006E-01   1.0985063319702380E-01
O   3.1402331070387275E+00   5.7001298168844334E+00   5.2708365070853516E+00  -4.9997037486335483E-01   7.4825637993055444E-02
O   3.1402331073197445E+00   8.2332063728434104E+00   5.2708365056420918E+00  -4.9960216436195637E-01   2.1445175971314365E-01
Al   3.4518438873750696E-10   8.3599999997640158E+00   4.4907450697521192E+00   7.4958329167903592E-01   8.6977027045235744E-02
Al   9.6399999999864168E+00   8.3600000007712350E+00   1.8342548442723983E+00   7.4934097292546564E-01   2.1872231661361246E-02
Al   3.8325830164316767E-10   8.3600000007747042E+00   8.1592450192922978E+00   7.4932463741036637E-01   2.0950354508128870E-02
Al   3.3617429635525395E-10   8.3599999997455523E+00   1.0815744981119842E+01   7.4942724989342624E-01   9.6141637914931674E-02
Al   2.4100000520973555E+00   9.7533366628824254E+00   8.7074181698525521E+00   7.4924452492752058E-01   5.7231622282557647E-02
Al   2.4100000524704801E+00   9.7533366621513373E+00   6.0509182069312173E+00   7.4923196846013607E-01   4.3860313057361912E-02
Al   2.4100000525612741E+00   9.7533366619393753E+00   1.2375888904979403E+01   7.4936647661783073E-01   1.0050761583934155E-01
Al   2.4100000525645839E+00   9.7533366619484188E+00   2.3824182576225956E+00   7.4932803011340177E-01   1.0020396123964467E-01
O   1.4604559792568343E+00   8.3600000007322066E+00   3.1624999561275491E+00  -4.9919768989660263E-01   9.0552733827357151E-02
O   1.6797669975736027E+00   1.1273456492437422E+01   3.1624999558550049E+00  -4.9956369067614848E-01   7.4993019259833411E-03
O   3.3595441248047417E+00   8.3600000007517714E+00   9.4874998681801639E+00  -4.9928619898692794E-01   4.1537370662999430E-02
O   7.3023305515681680E-01   9.6265433512941385E+00   9.4874998685089320E+00  -4.9962254689599828E-01   7.5941634187900009E-02
O   3.8704560319765053E+00   9.7533366626103106E+00   7.3791633185687751E+00  -4.9915249655601635E-01   6.0530609930363757E-02
O   1.6797669971926521E+00   1.1019869868307580E+01   7.3791633185015826E+00  -4.9961475799893407E-01   4.9356714064909865E-02
O   1.6797669971682616E+00   8.4867933116121943E+00   7.3791633193569055E+00  -4.9959046604419388E-01   1.1365264032392436E-01
O   9.4954407245906114E-01   9.7533366618444379E+00   1.0541634069975128E+00  -4.9911483564357617E-01   8.9050392060823880E-02
O   3.1402331068511087E+00   8.4867933115122263E+00   1.0541634068880437E+00  -4.9999481746100827E-01   1.5624394531947477E-02
O   3.1402331074228482E+00   1.1019869868069808E+01   1.0541634070253403E+00  -4.9997302792910059E-01   2.3560833054234001E-01
O   1.4604559799708146E+00   1.1146663180012945E+01   1.1595816944136592E+01  -4.9906722350863753E-01   1.6301996795928092E-01
O   7.3023305476596412E-01   9.8801299735233830E+00   5.2708365055854332E+00  -4.9996423130699164E-01   5.1410250910265083E-02
O   7.3023305529146587E-01   1.2413206530577817E+01   5.2708365073018291E+00  -4.9963007551783534E-01   6.4896274808110763E-02
Al   4.8200001047457430E+00   1.1146663180729661E+01   2.7408170769617490E-01   7.4931608147409223E-01   2.2512297988951165E-02
Al   4.8200001047994787E+00   1.1146663180792146E+01   1.0267620519184062E+01   7.4947338596107915E-01   2.3661207736278302E-02
Al   4.8200001042864358E+00   1.1146663179897089E+01   3.9425816570293311E+00   7.4939047838150774E-01   6.2782571950489141E-02
Al   4.8200001042606795E+00   1.1146663180518015E+01   6.5990816199009954E+00   7.4942653100228096E-01   8.4450491665526747E-02
O   4.0897670492060758E+00   9.6265433502659352E+00   3.1624999573849641E+00  -4.9959221505326923E-01   1.1861210016760709E-01
O   3.1402331068559861E+00   1.1273456492335308E+01   9.4874998681859459E+00  -4.9993742720550216E-01   4.2769239585278410E-02
O   4.0897670497319414E+00   1.2413206530383311E+01   1.1595816944504472E+01  -4.9991789002773412E-01   1.1333914692468833E-02
O   4.0897670493737524E+00   9.8801299742488560E+00   1.1595816943005065E+01  -4.9953413179227102E-01   1.7375377862882728E-02
O   3.3595441246962690E+00   1.1146663180696418E+01   5.2708365069555514E+00  -4.9927471697233283E-01   2.3566218547142892E-01
O   9.4954407252422057E-01   1.2539999843038981E+01   9.4874998696593060E+00  -4.9928284961879399E-01   3.0800658280110131E-02
O   1.4604559794137826E+00   1.3933336504395871E+01   7.3791633184263770E+00  -4.9915011984076241E-01   9.1988639690682245E-02
O   7.3023305536000926E-01   1.2666793154385591E+01   1.0541634072879922E+00  -4.9994612302753616E-01   4.5624178004763458E-03
O   7.3023305473330602E-01   1.5199869711140851E+01   1.0541634073855457E+00  -4.9960656710219187E-01   1.1255745864764091E-01
Al   2.4100000524349143E+00   1.2539999842208212E+01   4.4907450698797220E+00   7.4925074358486476E-01   2.8141100956604655E-02
Al   2.4100000526247891E+00   1.2539999841870159E+01   1.8342548444024613E+00   7.4936232177170803E-01   2.4181484392387102E-02
Al   2.4100000519976659E+00   1.2539999842828712E+01   8.1592450180295621E+00   7.4931696583846863E-01   9.9712540209707129E-02
Al   2.4100000524990781E+00   1.2539999841924942E+01   1.0815744982360130E+01   7.4950792867831995E-01   3.5488177023367200E-02
Al   4.8200001046398135E+00   1.3933336505150201E+01   8.7074181696407056E+00   7.4936570308523365E-01   2.8791576420871084E-02
Al   4.8200001042257687E+00   1.3933336504027226E+01   6.0509182064974292E+00   7.4957093165729205E-01   1.0912057602519026E-01
Al   4.8200001047727907E+00   1.3933336504170207E+01   1.2375888906366747E+01   7.4940528203379175E-01   1.5388784232284106E-01
Al   4.8200001041453220E+00   1.3933336504377261E+01   2.3824182561734562E+00   7.4932002330153580E-01   8.4654063329225274E-02
Al   2.4100000524356275E+00   1.5326663022238650E+01   2.7408170620893940E-01   7.4948802452770602E-01   1.6597781856394750E-01
Al   2.4100000521006466E+00   1.5326663021933751E+01   1.0267620517734345E+01   7.4942250037302083E-01   4.5382723218614376E-02
Al   2.4100000525730687E+00   1.5326663023155122E+01   3.9425816556229853E+00   7.4934248856967267E-01   8.8717298659898053E-02
Al   2.4100000521279568E+00   1.5326663022151919E+01   6.5990816201439175E+00   7.4944994019582545E-01   1.7025768752053441E-01
O   3.8704560320766190E+00   1.2539999843021887E+01   3.1624999569190697E+00  -4.9914770080176218E-01   1.4980982553958702E-01
O   1.6797669976725143E+00   1.3806543192507466E+01   3.1624999560199125E+00  -4.9959729309621270E-01   3.6517671117559707E-02
O   4.0897670493003044E+00   1.5453456333622860E+01   3.1624999559423119E+00  -4.9953810723588266E-01   2.9220664147785798E-02
O   7.3023305472057842E-01   1.5453456334591070E+01   9.4874998695491346E+00  -4.9998336565657819E-01   5.7316113935872097E-02
O   3.1402331070410727E+00   1.3806543193538806E+01   9.4874998692768209E+00  -4.9953020684517835E-01   7.2587649281871933E-02
O   4.0897670492390406E+00   1.5199869710442712E+01   7.3791633192785735E+00  -4.9993579256662102E-01   2.1155760366858671E-02
O   4.0897670493551033E+00   1.2666793153882429E+01   7.3791633194439648E+00  -4.9991463778305789E-01   3.4552865696797469E-02
O   3.3595441246743749E+00   1.3933336505066046E+01   1.0541634074110044E+00  -4.9918198886724596E-01   6.6964185724263117E-02
O   3.8704560320379597E+00   1.5326663022783919E+01   1.1595816943031149E+01  -4.9919128924447254E-01   2.3565026541319062E-02
O   1.6797669972550053E+00   1.6593206373491491E+01   1.1595816944492814E+01  -4.9994134291107351E-01   1.1821254783954920E-01
O   1.6797669971107467E+00   1.4060129816800973E+01   1.1595816942934363E+01  -4.9989698990236509E-01   1.8590694555811312E-02
O   9.4954407246001504E-01   1.5326663023153237E+01   5.2708365068552316E+00  -4.9920561100156657E-01   3.4519682562962554E-02
O   3.1402331073603542E+00   1.4060129816868688E+01   5.2708365070678163E+00  -4.9998660900928460E-01   1.1982840186031143E-01
O   3.1402331073792862E+00   1.6593206372566968E+01   5.2708365058840485E+00  -4.9991762939844531E-01   5.5948189635412924E-03
Al   4.8200000003828469E+00   1.6719999999762329E+01   4.4907450690025286E+00   7.4927645608136162E-01   4.4121747844765295E-02
Al   4.8200000002491805E+00   4.5479816665027393E-10   1.8342548432015620E+00   7.4939155791193457E-01   1.8358779727066454E-01
Al   4.8199999998168037E+00   1.6719999999764113E+01   8.1592450190162413E+00   7.4950314266206997E-01   4.3766657108977931E-02
Al   4.8200000002655834E+00   1.6719999999965797E+01   1.0815744982496444E+01   7.4930624722439854E-01   3.6956636085463256E-02
Al   7.2300000525208050E+00   1.3933366625970240E+00   8.7074181697385775E+00   7.4935612673932939E-01   5.9931296644508796E-02
Al   7.2300000519783634E+00   1.3933366620081917E+00   6.0509182053279185E+00   7.4917074770471315E-01   5.5018103856229877E-03
Al   7.2300000525126293E+00   1.3933366618293275E+00   1.2375888905206320E+01   7.4915908480163340E-01   3.7927651289564004E-02
Al   7.2300000520696273E+00   1.3933366628615460E+00   2.3824182564413197E+00   7.4937155939163036E-01   1.0925150459046211E-01
O   6.2804559797830013E+00   6.0243103315058878E-10   3.1624999555613353E+00  -4.9923982640923015E-01   4.8191992016992098E-02
O   6.4997669977407524E+00   2.9134564921602424E+00   3.1624999556466133E+00  -4.9994643540242922E-01   2.7484883617239265E-02
O   8.1795441248200884E+00   6.8397054451028510E-10   9.4874998692678680E+00  -4.9919394597383615E-01   4.3284143610454448E-02
O   5.5502330547560623E+00   1.2665433513193738E+00   9.4874998697375617E+00  -4.9996168208388703E-01   3.8043030577978816E-02
O   8.6904560320587088E+00   1.3933366627099220E+00   7.3791633197243467E+00  -4.9917809786009038E-01   8.0872547492399888E-02
O   6.4997669972684706E+00   2.6598698689010916E+00   7.3791633183758947E+00  -4.9957804702260322E-01   1.4830822749484932E-01
O   6.4997669975857413E+00   1.2679331215615991E-01   7.3791633180047409E+00  -5.0000322034870948E-01   2.7281916393661104E-02
O   5.7695440726207412E+00   1.3933366628964843E+00   1.0541634056835447E+00  -4.9915968447439862E-01   7.9240436404031028E-02
O   7.9602331068811463E+00   1.2679331209802891E-01   1.0541634073864465E+00  -4.9961766504572136E-01   2.6417344284474665E-02
O   7.9602331074371921E+00   2.6598698683889590E+00   1.0541634058111065E+00  -4.9958048935802246E-01   1.1951228189308520E-02
O   6.2804559793446399E+00   2.7866631800783934E+00   1.1595816944329213E+01  -4.9925759243577250E-01   3.2680296861713844E-02
O   5.5502330547598451E+00   1.5201299742464187E+00   5.2708365056174742E+00  -4.9955319104521312E-01   2.6075402784936377E-02
O   5.5502330552831243E+00   4.0532065311672323E+00   5.2708365056490374E+00  -4.9959818742567741E-01   3.1405468022817191E-02
Al   1.0413787667751251E-07   2.7866631804979547E+00   2.7408170732630233E-01   7.4921381897728390E-01   8.5926860964038121E-02
Al   1.0423604474674165E-07   2.7866631799371531E+00   1.0267620517954812E+01   7.4928580799582711E-01   1.9931802314250773E-02
Al   1.0422687694244815E-07   2.7866631807527433E+00   3.9425816557273277E+00   7.4945665450111054E-01   1.7262407238305143E-02
Al   1.0472972554964600E-07   2.7866631807830196E+00   6.5990816184357790E+00   7.4941948951736803E-01   6.1079599499227505E-02
O   8.9097670493157892E+00   1.2665433512760467E+00   3.1624999560409672E+00  -4.9998367997810966E-01   6.7640116535888126E-02
O   7.9602331069738348E+00   2.9134564914053014E+00   9.4874998697091577E+00  -4.9961494667845763E-01   6.7244442326529930E-02
O   8.9097670494056906E+00   4.0532065313643546E+00   1.1595816944657331E+01  -4.9997051632108658E-01   2.4801318029328787E-01
O   8.9097670494286501E+00   1.5201299734656488E+00   1.1595816943032801E+01  -4.9958255390528628E-01   7.3568687238205963E-02
O   8.1795441246241705E+00   2.7866631808468623E+00   5.2708365073120387E+00  -4.9921100139274177E-01   8.1688356630257072E-02
O   5.7695440730795253E+00   4.1799998428733360E+00   9.4874998694792616E+00  -4.9919342488784757E-01   9.0695817240691604E-02
O   6.2804559797602044E+00   5.5733365041879672E+00   7.3791633180617948E+00  -4.9918264736737861E-01   2.2670894217301993E-02
O   5.5502330551476451E+00   4.3067931536336284E+00   1.0541634071917405E+00  -4.9998081223073054E-01   3.0490461335685665E-03
O   5.5502330552138153E+00   6.8398697114255542E+00   1.0541634068625239E+00  -4.9998726693380746E-01   8.1435236893422178E-02
Al   7.2300000520294860E+00   4.1799998428637348E+00   4.4907450697252393E+00   7.4927808788408390E-01   4.4280194529904393E-02
Al   7.2300000521082355E+00   4.1799998418426316E+00   1.8342548440942912E+00   7.4931902638350545E-01   3.0891196326720770E-03
Al   7.2300000524837476E+00   4.1799998418543289E+00   8.1592450193634249E+00   7.4928574684052007E-01   1.5564005782403209E-01
Al   7.2300000519940797E+00   4.1799998421242908E+00   1.0815744981087310E+01   7.4928457060636244E-01   1.8942014405129046E-01
Al   1.0464118335384854E-07   5.5733365049540193E+00   8.7074181683539784E+00   7.4942995586113792E-01   1.3325688536236990E-01
Al   1.0459407072893613E-07   5.5733365040562957E+00   6.0509182051407793E+00   7.4941746063730497E-01   8.1141481853859027E-03
Al   1.0411036256208206E-07   5.5733365049282835E+00   1.2375888906485413E+01   7.4936114669596821E-01   7.3196701800512520E-02
Al   1.0459830679820926E-07   5.5733365049042947E+00   2.3824182574588915E+00   7.4934398774287736E-01   7.0905071257505156E-02
Al   7.2300000525283039E+00   6.9666630219597199E+00   2.7408170782893426E-01   7.4933081526514744E-01   1.4350050474383008E-01
Al   7.2300000519844012E+00   6.9666630230555020E+00   1.0267620517973425E+01   7.4940931556451718E-01   2.7092901458007104E-02
Al   7.2300000519353889E+00   6.9666630222377437E+00   3.9425816566012704E+00   7.4937672360583196E-01   1.6032734693218958E-02
Al   7.2300000524446419E+00   6.9666630220470482E+00   6.5990816185875047E+00   7.4939640896856963E-01   4.2124568260993249E-02
O   8.6904560315466792E+00   4.1799998422353193E+00   3.1624999574252821E+00  -4.9917855283982515E-01   4.8210323625676052E-02
O   6.4997669977059482E+00   5.4465431936054465E+00   3.1624999573401058E+00  -4.9959800074469829E-01   4.0703001892146817E-02
O   8.9097670492102612E+00   7.0934563337062349E+00   3.1624999571264985E+00  -4.9993512852874389E-01   1.9811571037183315E-03
O   5.5502330551959824E+00   7.0934563336154950E+00   9.4874998679328826E+00  -4.9957975148411293E-01   2.3671332496360264E-01
O   7.9602331069244237E+00   5.4465431925316485E+00   9.4874998682680349E+00  -4.9997057026681269E-01   1.5804119854961637E-01
O   8.9097670492539489E+00   6.8398697112340097E+00   7.3791633183949568E+00  -4.9992294625473921E-01   2.7039278688456649E-02
O   8.9097670494200685E+00   4.3067931537245370E+00   7.3791633197396136E+00  -4.9955936365652498E-01   2.8110438166490916E-02
O   8.1795441251654868E+00   5.5733365043492027E+00   1.0541634069361761E+00  -4.9924539804856760E-01   6.3685443399246963E-02
O   8.6904560319440058E+00   6.9666630231369915E+00   1.1595816944457992E+01  -4.9916506859194687E-01   9.5982341945622149E-02
O   6.4997669971812826E+00   8.2332063725572109E+00   1.1595816944491027E+01  -4.9991183083409751E-01   4.0730403014225557E-02
O   6.4997669971465362E+00   5.7001298167321854E+00   1.1595816944715846E+01  -4.9957809738033720E-01   1.3227682996997671E-02
O   5.7695440729354486E+00   6.9666630222854460E+00   5.2708365073760923E+00  -4.9927551153971361E-01   1.7276438813253520E-01
O   7.9602331070611418E+00   5.7001298168225247E+00   5.2708365073740202E+00  -4.9955964712812229E-01   9.3678491179137291E-02
O   7.9602331073701889E+00   8.2332063735294660E+00   5.2708365073623575E+00  -4.9993615412700265E-01   3.9429835093817846E-02
Al   4.8199999997761642E+00   8.3600000008206869E+00   4.4907450699065583E+00   7.4913355041209417E-01   4.2271275957363234E-02
Al   4.8200000004476227E+00   8.3599999996545993E+00   1.8342548432824599E+00   7.4937345368089225E-01   3.1183514761214056E-02
Al   4.8199999999273029E+00   8.3600000004451953E+00   8.1592450192501875E+00   7.4938912447940309E-01   2.8785230734276777E-02
Al   4.8199999998709693E+00   8.3600000006013957E+00   1.0815744982571868E+01   7.4928401478197726E-01   5.1508553018382884E-02
Al   7.2300000525780748E+00   9.7533366629481346E+00   8.7074181697722945E+00   7.4945537675179352E-01   2.1708410730136986E-02
Al   7.2300000520134224E+00   9.7533366627058378E+00   6.0509182055364796E+00   7.4946309547341272E-01   9.5602446016008591E-02
Al   7.2300000520891299E+00   9.7533366617756325E+00   1.2375888905306910E+01   7.4935708280973135E-01   3.5467105490130504E-02
Al   7.2300000520791885E+00   9.7533366618392972E+00   2.3824182559572593E+00   7.4937007901588881E-01   1.0069890376739733E-01
O   6.2804559793581305E+00   8.3599999997311425E+00   3.1624999572640853E+00  -4.9915216494612125E-01   3.2345580613951291E-02
O   6.4997669977286181E+00   1.1273456492250316E+01   3.1624999555989253E+00  -4.9995568137018775E-01   1.7032479592333444E-01
O   8.1795441247120859E+00   8.3600000007860285E+00   9.4874998694773574E+00  -4.9909222622656468E-01   6.6577355751389344E-02
O   5.5502330548569061E+00   9.6265433501262176E+00   9.4874998681017022E+00  -4.9992681024375685E-01   9.1830558844992249E-02