LAMMPS data file using Dreiding for polymer_relax

362  atoms
361  bonds
720  angles
1071  dihedrals
480  impropers

2  atom types
2  bond types
1  angle types
4  dihedral types
1  improper types

0.0 14.4831 xlo xhi
0.0 14.4831 ylo yhi
0.0 14.4831 zlo zhi

Masses

  1      1.007900     # H_
  2     12.011000     # C_3

Atoms

     1   1   1    0.02382      5.32136700      5.80678200      2.62270200
     2   1   2   -0.06406      6.21949400      5.19607500      2.75681100
     3   1   2   -0.04847      6.45756600      4.89178400      4.22618500
     4   1   2   -0.04979      7.73927400      4.06981500      4.37616200
     5   1   1    0.02382      7.06960400      5.74560700      2.34067300
     6   1   1    0.02382      6.09660100      4.27310900      2.18032100
     7   1   1    0.03074      6.60638800      5.83025400      4.77293400
     8   1   2   -0.06406      5.29310300      4.13079300      4.83712900
     9   1   1    0.02382      5.14353200      3.17121200      4.33100200
    10   1   1    0.02382      4.36532900      4.70636600      4.76290400
    11   1   1    0.02382      5.48492200      3.92986200      5.89574900
    12   1   2   -0.04531      8.05090400      3.80787100      5.83992600
    13   1   2   -0.04951      9.35618600      3.01735100      5.95045700
    14   1   1    0.02801      8.55700100      4.62658000      3.90799900
    15   1   1    0.02801      7.61087500      3.13017600      3.82852900
    16   1   2   -0.06378      8.27231000      5.10093600      6.60627700
    17   1   1    0.03106      7.22261000      3.25212600      6.29477200
    18   1   1    0.02383      7.37770100      5.73191500      6.57673800
    19   1   1    0.02383      9.10731600      5.66924600      6.18514900
    20   1   1    0.02383      8.50158100      4.88603000      7.65465300
    21   1   2   -0.04530      9.54053500      2.46248300      7.35276600
    22   1   2   -0.04951     10.87126700      1.71183800      7.43391900
    23   1   1    0.02802     10.18264100      3.68835400      5.69635300
    24   1   1    0.02802      9.33327900      2.21102000      5.20977100
    25   1   1    0.03106      9.58962300      3.29120300      8.06874200
    26   1   2   -0.06378      8.40698800      1.52768900      7.73950200
    27   1   1    0.02383      8.35665600      0.67070300      7.05952200
    28   1   1    0.02383      7.44342600      2.04565600      7.71094300
    29   1   1    0.02383      8.55863400      1.14719000      8.75442400
    30   1   2   -0.04530     11.23260200      1.39688400      8.87564500
    31   1   2   -0.04951     12.58408100      0.68094600      8.91851300
    32   1   1    0.02802     11.64365400      2.33873400      6.97756200
    33   1   1    0.02802     10.78487500      0.79443800      6.84212200
    34   1   2   -0.06378     11.39641600      2.66137800      9.70181300
    35   1   1    0.03106     10.44929000      0.77103600      9.31897800
    36   1   1    0.02383     10.46604500      3.23868800      9.72310400
    37   1   1    0.02383     12.18649900      3.29848700      9.29264500
    38   1   1    0.02383     11.66286900      2.40894800     10.73289300
    39   1   2   -0.04530     12.82318100      0.04849400     10.27909000
    40   1   2   -0.04951     14.19723000     13.85877900     10.29495900
    41   1   1    0.02802     13.36513800      1.41557800      8.69917600
    42   1   1    0.02802     12.59735900     14.40746000      8.12683100
    43   1   1    0.03106     12.83431400      0.83052600     11.04727500
    44   1   2   -0.06378     11.75336300     13.50707700     10.61710600
    45   1   1    0.02383     11.74323400     12.69448100      9.88299700
    46   1   1    0.02383     10.76042900     13.96680700     10.63407300
    47   1   1    0.02383     11.94334900     13.07144100     11.60299200
    48   1   2   -0.04530      0.03120300     13.29873100     11.67124600
    49   1   2   -0.04951      1.42526900     12.66842800     11.65719000
    50   1   1    0.02802      0.46147600      0.12195200     10.00774400
    51   1   1    0.02802     14.20052100     13.06636000      9.53906800
    52   1   2   -0.06378      0.07078400     14.39161200     12.72593900
    53   1   1    0.03106     13.75658200     12.55533700     11.94525900
    54   1   1    0.02383     13.58609700      0.41562400     12.80114000
    55   1   1    0.02383      0.83291600      0.65691500     12.48791700
    56   1   1    0.02383      0.30739200     13.96491000     13.70562500
    57   1   2   -0.04530      1.65490300     11.82502100     12.89987500
    58   1   2   -0.04951      3.06958400     11.24317600     12.86771700
    59   1   1    0.02802      2.16277100     13.47539400     11.60484500
    60   1   1    0.02802      1.51937800     12.06284500     10.74959900
    61   1   1    0.03106      1.58430300     12.46118900     13.78988300
    62   1   2   -0.06378      0.64455500     10.69524900     13.00544900
    63   1   1    0.02383      0.71693000     10.02318700     12.14380800
    64   1   1    0.02383     14.10603500     11.08478200     13.05215700
    65   1   1    0.02383      0.82610600     10.10737100     13.91059100
    66   1   2   -0.04530      3.28756400     10.27573300     14.01874700
    67   1   2   -0.04951      4.72175600      9.74465100     13.97462300
    68   1   1    0.02802      3.78014700     12.07326300     12.93016500
    69   1   1    0.02802      3.21401400     10.74420100     11.90362500
    70   1   2   -0.06378      3.13086300     10.96176300      0.88220900
    71   1   1    0.03106      2.56784200      9.45223300     13.94354100
    72   1   1    0.02383      2.12295900     11.37451800      0.99664000
    73   1   1    0.02383      3.85089900     11.77831300      0.99335300
    74   1   1    0.02383      3.29911400     10.24711100      1.69387800
    75   1   2   -0.04530      4.88337800      8.53505100      0.39658600
    76   1   2   -0.04951      6.33599600      8.05647500      0.35456400
    77   1   1    0.02802      5.39213700     10.54899200     14.29316400
    78   1   1    0.02802      4.96296400      9.49250400     12.93657200
    79   1   1    0.03106      4.66486900      8.82287200      1.43158400
    80   1   2   -0.06378      3.96329100      7.39872800     14.46668600
    81   1   1    0.02383      4.18341500      7.06754400     13.44629600
    82   1   1    0.02383      2.91426500      7.70750300      0.02555900
    83   1   1    0.02383      4.09301000      6.54305500      0.65357400
    84   1   2   -0.04530      6.93333400      8.24786500     13.45383500
    85   1   2   -0.04951      8.37103800      7.72464700     13.44157000
    86   1   1    0.02802      6.35341600      6.99794200      0.63213900
    87   1   1    0.02802      6.90341800      8.61433200      1.10698500
    88   1   2   -0.06378      6.18213400      7.44776700     12.40318000
    89   1   1    0.03106      6.90670200      9.31149300     13.18964900
    90   1   1    0.02383      5.13452200      7.76182600     12.34655000
    91   1   1    0.02383      6.20792500      6.37779400     12.63132500
    92   1   1    0.02383      6.63474900      7.59643000     11.41784600
    93   1   2   -0.04530      9.09830400      8.15813400     12.18002100
    94   1   2   -0.04951     10.51728400      7.58598600     12.18662300
    95   1   1    0.02802      8.33593600      6.63246900     13.50286000
    96   1   1    0.02802      8.88047000      8.09885500     14.33586200
    97   1   1    0.03106      8.58469300      7.74575400     11.30369100
    98   1   2   -0.06378      9.16262700      9.67147400     12.06171300
    99   1   1    0.02383      9.70198500     10.10807700     12.90894500
   100   1   1    0.02383      8.15884200     10.10637800     12.03285100
   101   1   1    0.02383      9.68410300      9.95831700     11.14322200
   102   1   2   -0.04530     11.24447700      7.91645900     10.89421800
   103   1   2   -0.04951     12.64330500      7.29729600     10.92282500
   104   1   1    0.02802     10.44600500      6.50143300     12.31510000
   105   1   1    0.02802     11.04913800      7.99628000     13.05155100
   106   1   2   -0.06378     10.54142800      7.31969400      9.68677200
   107   1   1    0.03106     11.30573000      9.00492900     10.77893900
   108   1   1    0.02383      9.52383300      7.71317500      9.59187400
   109   1   1    0.02383     10.48212300      6.22981400      9.76552500
   110   1   1    0.02383     11.08710100      7.56528200      8.77038200
   111   1   2   -0.04530     13.41182000      7.62754400      9.65449800
   112   1   2   -0.04951      0.30537000      6.96165800      9.70370800
   113   1   1    0.02802     12.53333000      6.21350200     11.02836300
   114   1   1    0.02802     13.16742500      7.67332000     11.80781900
   115   1   1    0.03106     12.88074000      7.21450200      8.78895800
   116   1   2   -0.06378     13.58020600      9.12681100      9.47512400
   117   1   1    0.02383     14.13893000      9.56104400     10.31094700
   118   1   1    0.02383     12.60870000      9.62691800      9.41490600
   119   1   1    0.02383     14.12977600      9.33912200      8.55276800
   120   1   2   -0.04530      1.11458600      7.28985100      8.46041000
   121   1   2   -0.04951      2.46698000      6.57763100      8.52878100
   122   1   1    0.02802      0.15730900      5.88034300      9.78542700
   123   1   1    0.02802      0.82015500      7.30331800     10.60790700
   124   1   2   -0.06378      0.43366900      6.78632500      7.19900300
   125   1   1    0.03106      1.25226800      8.37525900      8.39155800
   126   1   1    0.02383     13.93280900      7.25038800      7.07304700
   127   1   1    0.02383      0.29961300      5.70072100      7.23143000
   128   1   1    0.02383      1.03813700      7.02824700      6.31926700
   129   1   2   -0.04530      3.43100000      7.13772100      7.49664800
   130   1   2   -0.04951      4.75646400      6.37705800      7.57038400
   131   1   1    0.02802      2.29882600      5.51084800      8.35118200
   132   1   1    0.02802      2.86602600      6.69456500      9.54189400
   133   1   1    0.03106      3.02065300      6.98086800      6.49224800
   134   1   2   -0.06378      3.68471500      8.62007300      7.71250700
   135   1   1    0.02383      4.12771000      8.80235900      8.69732100
   136   1   1    0.02383      2.75437400      9.19212200      7.64334400
   137   1   1    0.02383      4.37545500      9.00109400      6.95386000
   138   1   2   -0.04530      4.99598500      5.83321700      8.96866800
   139   1   2   -0.04951      6.34508700      5.11284400      9.01209500
   140   1   1    0.02802      5.55950000      7.06509700      7.28828600
   141   1   1    0.02802      4.72903800      5.56685100      6.83409500
   142   1   2   -0.06378      5.07746400      6.94805800      9.99766000
   143   1   1    0.03106      4.18316900      5.14835600      9.23719000
   144   1   1    0.02383      4.14364300      7.51918200     10.03124700
   145   1   1    0.02383      5.89400600      7.63852200      9.76511900
   146   1   1    0.02383      5.25700600      6.53224600     10.99400700
   147   1   2   -0.04530      6.48251500      4.28861600     10.28099000
   148   1   2   -0.04951      7.85590800      3.61476300     10.30579700
   149   1   1    0.02802      7.13559800      5.86817100      8.96294200
   150   1   1    0.02802      6.42497800      4.47914200      8.12251700
   151   1   1    0.03106      6.42860200      4.95083300     11.15298200
   152   1   2   -0.06378      5.39696500      3.23052300     10.38274500
   153   1   1    0.02383      5.44945500      2.53311700      9.54001100
   154   1   1    0.02383      4.40249000      3.68718100     10.38903100
   155   1   1    0.02383      5.51306900      2.65561300     11.30678100
   156   1   2   -0.04530      7.95025200      2.61084300     11.44227200
   157   1   2   -0.04951      9.34702500      1.98658500     11.45735900
   158   1   1    0.02802      8.61500700      4.39423700     10.42425100
   159   1   1    0.02802      8.01718700      3.12778200      9.33825000
   160   1   2   -0.06378      7.76915000      3.27715400     12.79562500
   161   1   1    0.03106      7.18311700      1.83881900     11.31078200
   162   1   1    0.02383      6.78580300      3.75353000     12.86928400
   163   1   1    0.02383      8.53428100      4.04146500     12.96284300
   164   1   1    0.02383      7.84804600      2.53589200     13.59696700
   165   1   2   -0.04530      9.43502500      0.87194200     12.48602900
   166   1   2   -0.04951     10.85357800      0.29881600     12.49766100
   167   1   1    0.02802     10.06942300      2.77520800     11.68986100
   168   1   1    0.02802      9.56620800      1.61067400     10.45239100
   169   1   1    0.03106      9.24077600      1.28146100     13.48421200
   170   1   2   -0.06378      8.44158500     14.24307900     12.19444900
   171   1   1    0.02383      8.63472700     13.79197900     11.21540000
   172   1   1    0.02383      7.41484600      0.13858300     12.20148800
   173   1   1    0.02383      8.51934300     13.45674100     12.95172600
   174   1   2   -0.04530     10.85270700     13.33340400     12.95618000
   175   1   2   -0.04951     12.28922100     12.80789700     12.99040800
   176   1   1    0.02802     11.46162900      0.90979600     13.17206400
   177   1   1    0.02802     11.26935900      0.39027800     11.48866600
   178   1   2   -0.06378     10.31630600     13.19327500     14.37073700
   179   1   1    0.03106     10.23846400     12.73549900     12.27278900
   180   1   1    0.02383      9.28314200     13.55070500     14.43512700
   181   1   1    0.02383     10.92248800     13.76593100      0.59630800
   182   1   1    0.02383     10.33219300     12.14359300      0.19711600
   183   1   2   -0.04530     12.46640900     11.77646000     14.09180400
   184   1   2   -0.04951     13.92108700     11.30307800     14.11869000
   185   1   1    0.02802     12.95842400     13.65802100     13.15563400
   186   1   1    0.02802     12.52136600     12.37836100     12.01014400
   187   1   1    0.03106     12.25673900     12.24066100      0.57949200
   188   1   2   -0.06378     11.54835600     10.58205400     13.89456000
   189   1   1    0.02383     11.76002100     10.07773300     12.94577700
   190   1   1    0.02383     10.49815700     10.88968500     13.89301900
   191   1   1    0.02383     11.68938400      9.85768700      0.21973000
   192   1   2   -0.04530     14.38313200     11.04142600      1.05913500
   193   1   2   -0.04951      1.36699800     10.60682100      1.04798300
   194   1   1    0.02802      0.05646600     12.07826400     13.65560000
   195   1   1    0.02802     13.99885000     10.39697200     13.50857900
   196   1   2   -0.06378     14.32011200     12.29903700      1.90929800
   197   1   1    0.03106     13.75336100     10.26532400      1.50953800
   198   1   1    0.02383     13.29519300     12.68012200      1.96968600
   199   1   1    0.02383      0.47231100     13.08693500      1.49310900
   200   1   1    0.02383      0.18072800     12.08686300      2.92650300
   201   1   2   -0.04530      1.48686000      9.09241900      1.02443300
   202   1   2   -0.04951      2.96457400      8.69678700      1.05156400
   203   1   1    0.02802      1.84834800     11.01153100      1.94372600
   204   1   1    0.02802      1.85054400     11.05193100      0.17198700
   205   1   1    0.03106      1.02144800      8.67625000      1.92554500
   206   1   2   -0.06378      0.82523100      8.49657000     14.27642500
   207   1   1    0.02383      1.29463000      8.86975500     13.36005800
   208   1   1    0.02383     14.24337600      8.74632500     14.24292800
   209   1   1    0.02383      0.91870100      7.40615000     14.28583600
   210   1   2   -0.04530      3.59811100      9.04603800      2.38759800
   211   1   2   -0.04951      5.08111200      8.67052900      2.36307800
   212   1   1    0.02802      3.47341700      9.22679100      0.24038100
   213   1   1    0.02802      3.03625300      7.62224200      0.85275800
   214   1   2   -0.06378      3.54352700     10.53959700      2.66079200
   215   1   1    0.03106      3.07669900      8.50982900      3.18910800
   216   1   1    0.02383      2.50789600     10.89409100      2.69447200
   217   1   1    0.02383      4.07336500     11.10061300      1.88484700
   218   1   1    0.02383      4.01136600     10.76638700      3.62387900
   219   1   2   -0.04530      5.62059300      8.48745800      3.77154500
   220   1   2   -0.04951      7.11156700      8.15015800      3.70731000
   221   1   1    0.02802      5.62554900      9.46884100      1.84914400
   222   1   1    0.02802      5.19322200      7.75165900      1.77791300
   223   1   1    0.03106      5.52301100      9.42923200      4.32412800
   224   1   2   -0.06378      4.88361900      7.38681200      4.51570900
   225   1   1    0.02383      4.99357500      6.42554900      4.00266500
   226   1   1    0.02383      3.81594400      7.61323000      4.59548100
   227   1   1    0.02383      5.28500400      7.27900200      5.52818600
   228   1   2   -0.04530      7.78309500      8.38967900      5.04895600
   229   1   2   -0.04951      9.27663200      8.07773500      4.93521100
   230   1   1    0.02802      7.56932400      8.77804100      2.93655400
   231   1   1    0.02802      7.21425500      7.10442500      3.39875600
   232   1   2   -0.06378      7.68522500      9.84529400      5.47314700
   233   1   1    0.03106      7.31263700      7.75608900      5.80990400
   234   1   1    0.02383      6.63954600     10.15322000      5.57834800
   235   1   1    0.02383      8.16418700     10.50134000      4.73982700
   236   1   1    0.02383      8.18133600      9.99357200      6.43737300
   237   1   2   -0.04530      9.78938300      8.36888800      3.53497900
   238   1   2   -0.04951     11.27432700      8.01019300      3.45023800
   239   1   1    0.02802      9.42298800      7.02125100      5.18069800
   240   1   1    0.02802      9.81046000      8.67676600      5.68052800
   241   1   1    0.03106      9.25942600      7.73542700      2.81409100
   242   1   2   -0.06378      9.59849500      9.82881700      3.16014300
   243   1   1    0.02383     10.14681500     10.48408100      3.84520200
   244   1   1    0.02383      8.54070100     10.10747400      3.19144500
   245   1   1    0.02383      9.96853100     10.01169100      2.14649900
   246   1   2   -0.04530     11.47763600      6.70224800      2.70439700
   247   1   2   -0.04951     12.96828400      6.35892000      2.67287300
   248   1   1    0.02802     11.66343100      7.92976300      4.47002800
   249   1   1    0.02802     11.79827500      8.83185000      2.95057000
   250   1   2   -0.06378     10.79055500      5.54344800      3.40684600
   251   1   1    0.03106     11.08131300      6.79795200      1.68676400
   252   1   1    0.02383      9.71023700      5.71042100      3.47291400
   253   1   1    0.02383     11.18026400      5.41191600      4.42093900
   254   1   1    0.02383     10.95704700      4.61298200      2.85516000
   255   1   2   -0.04530     13.23709000      5.18063000      1.75216100
   256   1   2   -0.04951      0.24641400      4.84431500      1.77585100
   257   1   1    0.02802     13.28441200      6.12249200      3.69366100
   258   1   1    0.02802     13.51846900      7.24684400      2.34394000
   259   1   1    0.03106     12.69863000      4.29990100      2.12119400
   260   1   2   -0.06378     12.80639400      5.47437100      0.32508400
   261   1   1    0.02383     13.35500200      6.33064700     14.40176300
   262   1   1    0.02383     11.73619400      5.69750200      0.27565900
   263   1   1    0.02383     13.00350100      4.60966300     14.16684600
   264   1   2   -0.04530      0.54013400      3.60839700      0.94244300
   265   1   2   -0.04951      2.03303300      3.28279500      1.02077500
   266   1   1    0.02802      0.54116200      4.67872400      2.81678600
   267   1   1    0.02802      0.79996300      5.71122100      1.39986400
   268   1   2   -0.06378     14.29435000      2.38645100      1.47532200
   269   1   1    0.03106      0.23773700      3.78894800     14.38735600
   270   1   1    0.02383     13.20982600      2.53712000      1.45437900
   271   1   1    0.02383      0.10803900      2.17045900      2.50626400
   272   1   1    0.02383      0.04394300      1.50926800      0.86355200
   273   1   2   -0.04530      2.46986800      2.43838900     14.31873100
   274   1   2   -0.04951      3.95667100      2.10269000     14.45148400
   275   1   1    0.02802      2.21526300      2.74577700      1.95685500
   276   1   1    0.02802      2.58891300      4.22568600      1.05632600
   277   1   1    0.03106      1.91983300      1.49011100     14.32482100
   278   1   2   -0.06378      2.22764800      3.15403700     13.00058400
   279   1   1    0.02383      2.79376900      4.09031000     12.95334300
   280   1   1    0.02383      1.16658000      3.38743200     12.86936600
   281   1   1    0.02383      2.54336400      2.52391500     12.16326000
   282   1   2   -0.04530      4.43129600      1.25711700     13.28183800
   283   1   2   -0.04951      5.90993300      0.91128000     13.46873200
   284   1   1    0.02802      4.10069500      1.56309300      0.90965800
   285   1   1    0.02802      4.51710500      3.04178600      0.02604900
   286   1   2   -0.06378      3.69167200     14.41492300     13.21131800
   287   1   1    0.03106      4.27857400      1.80967600     12.34740600
   288   1   1    0.02383      2.61633900      0.09002100     13.07724900
   289   1   1    0.02383      3.84162800     13.83211500     14.12532300
   290   1   1    0.02383      4.05544900     13.82200600     12.36635700
   291   1   2   -0.04530      6.26238900      0.80241200      0.45952200
   292   1   2   -0.04951      7.75359300      0.49312600      0.60633000
   293   1   1    0.02802      6.50557700      1.69678600     12.99330300
   294   1   1    0.02802      6.11113600     14.45272400     12.94703000
   295   1   1    0.03106      6.07953400      1.76575100      0.94977700
   296   1   2   -0.06378      5.45002200     14.20436000      1.15203500
   297   1   1    0.02383      5.64023200     13.22357500      0.70346900
   298   1   1    0.02383      4.37796500     14.41224600      1.08106600
   299   1   1    0.02383      5.71650200     14.15014000      2.21217300
   300   1   2   -0.04530      8.03763700     14.27329700      1.92298900
   301   1   2   -0.04951      9.54028300     14.01473600      2.04987800
   302   1   1    0.02802      8.30353600      1.43795800      0.55439400
   303   1   1    0.02802      8.06126500     14.35695000     14.24017000
   304   1   2   -0.06378      7.65397800      0.65284100      3.11338400
   305   1   1    0.03106      7.47863400     13.33101200      1.96073000
   306   1   1    0.02383      6.58423800      0.88689200      3.09900000
   307   1   1    0.02383      8.21148600      1.59451000      3.11221200
   308   1   1    0.02383      7.87411300      0.12843000      4.04846600
   309   1   2   -0.04530     10.34266200      0.67279500      1.44792100
   310   1   2   -0.04951     11.83641700      0.36129600      1.56000500
   311   1   1    0.02802      9.76869400     13.07693800      1.53392700
   312   1   1    0.02802      9.77822900     13.88532900      3.11098400
   313   1   1    0.03106     10.10715800      0.76030500      0.38082800
   314   1   2   -0.06378     10.04687300      1.99256000      2.14006600
   315   1   1    0.02383     10.30588700      1.94412200      3.20303200
   316   1   1    0.02383      8.98683800      2.25119300      2.05644900
   317   1   1    0.02383     10.63058900      2.79875500      1.68490900
   318   1   2   -0.04530     12.13106000     14.02771100      2.80684000
   319   1   2   -0.04951     13.63585100     13.76859800      2.90360400
   320   1   1    0.02802     12.38031000      1.31053900      1.59100600
   321   1   1    0.02802     12.14380600     14.30607100      0.65719700
   322   1   2   -0.06378     11.74783000      0.29411800      4.07165600
   323   1   1    0.03106     11.57802400     13.08222400      2.76197000
   324   1   1    0.02383     10.67662000      0.52152500      4.08290800
   325   1   1    0.02383     12.29954900      1.23569300      4.15289800
   326   1   1    0.02383     11.97564500     14.17220900      4.95480200
   327   1   2   -0.04530     13.93620100     12.66785200      3.90684000
   328   1   2   -0.04951      0.96641000     12.46377000      4.00300100
   329   1   1    0.02802     14.12263500      0.21784900      3.20637000
   330   1   1    0.02802     14.00327500     13.50160800      1.90709700
   331   1   1    0.03106     13.58489100     12.97383300      4.89919300
   332   1   2   -0.06378     13.27189800     11.35799800      3.51784800
   333   1   1    0.02383     13.63135200     11.01068300      2.54342600
   334   1   1    0.02383     12.18470700     11.46996400      3.46272800
   335   1   1    0.02383     13.49699300     10.58400500      4.25819200
   336   1   2   -0.04530      1.30132000     11.02327300      4.35105000
   337   1   2   -0.04952      2.81832300     10.86742300      4.47479000
   338   1   1    0.02802      1.35241800     13.13951700      4.77255000
   339   1   1    0.02802      1.41319400     12.74953100      3.04486000
   340   1   2   -0.06378      0.72284200     10.62263600      5.69759700
   341   1   1    0.03106      0.90663700     10.35945600      3.57298900
   342   1   1    0.02383     14.11399100     10.70655000      5.69548400
   343   1   1    0.02383      1.11442400     11.25773400      6.49814200
   344   1   1    0.02383      0.98303900      9.58496200      5.92862100
   345   1   2   -0.04557      3.38848000     11.85855000      5.47525000
   346   1   2   -0.05245      4.90846900     11.69773100      5.54360800
   347   1   1    0.02802      3.25865600     11.03057300      3.48619000
   348   1   1    0.02802      3.03433800      9.83723500      4.77705100
   349   1   1    0.03105      3.18385400     12.87977700      5.13315000
   350   1   2   -0.06379      2.79525800     11.66164700      6.86004200
   351   1   1    0.02383      3.01485700     10.65878400      7.24132000
   352   1   1    0.02383      1.70892000     11.79273200      6.84442800
   353   1   1    0.02383      3.21575000     12.39044100      7.55996300
   354   1   2   -0.05749      5.54536300     12.85127900      6.29993200
   355   1   1    0.02712      6.63302400     12.72498900      6.31060700
   356   1   1    0.02771      5.29253000     11.65753300      4.51953600
   357   1   1    0.02771      5.13130000     10.74104400      6.02776300
   358   1   2   -0.06672      5.27997100     14.18310900      5.61866200
   359   1   1    0.02712      5.14936100     12.87953600      7.32178900
   360   1   1    0.02352      4.20562000     14.38871000      5.56547100
   361   1   1    0.02352      5.68178500     14.19077000      4.60079900
   362   1   1    0.02352      5.75384500      0.51304700      6.17750800

Bonds

1  1  2  1 
2  2  3  2 
3  2  4  3 
4  1  5  2 
5  1  6  2 
6  1  7  3 
7  2  8  3 
8  1  9  8 
9  1  10  8 
10  1  11  8 
11  2  12  4 
12  2  13  12 
13  1  14  4 
14  1  15  4 
15  2  16  12 
16  1  17  12 
17  1  18  16 
18  1  19  16 
19  1  20  16 
20  2  21  13 
21  2  22  21 
22  1  23  13 
23  1  24  13 
24  1  25  21 
25  2  26  21 
26  1  27  26 
27  1  28  26 
28  1  29  26 
29  2  30  22 
30  2  31  30 
31  1  32  22 
32  1  33  22 
33  2  34  30 
34  1  35  30 
35  1  36  34 
36  1  37  34 
37  1  38  34 
38  2  39  31 
39  2  40  39 
40  1  41  31 
41  1  42  31 
42  1  43  39 
43  2  44  39 
44  1  45  44 
45  1  46  44 
46  1  47  44 
47  2  48  40 
48  2  49  48 
49  1  50  40 
50  1  51  40 
51  2  52  48 
52  1  53  48 
53  1  54  52 
54  1  55  52 
55  1  56  52 
56  2  57  49 
57  2  58  57 
58  1  59  49 
59  1  60  49 
60  1  61  57 
61  2  62  57 
62  1  63  62 
63  1  64  62 
64  1  65  62 
65  2  66  58 
66  2  67  66 
67  1  68  58 
68  1  69  58 
69  2  70  66 
70  1  71  66 
71  1  72  70 
72  1  73  70 
73  1  74  70 
74  2  75  67 
75  2  76  75 
76  1  77  67 
77  1  78  67 
78  1  79  75 
79  2  80  75 
80  1  81  80 
81  1  82  80 
82  1  83  80 
83  2  84  76 
84  2  85  84 
85  1  86  76 
86  1  87  76 
87  2  88  84 
88  1  89  84 
89  1  90  88 
90  1  91  88 
91  1  92  88 
92  2  93  85 
93  2  94  93 
94  1  95  85 
95  1  96  85 
96  1  97  93 
97  2  98  93 
98  1  99  98 
99  1  100  98 
100  1  101  98 
101  2  102  94 
102  2  103  102 
103  1  104  94 
104  1  105  94 
105  2  106  102 
106  1  107  102 
107  1  108  106 
108  1  109  106 
109  1  110  106 
110  2  111  103 
111  2  112  111 
112  1  113  103 
113  1  114  103 
114  1  115  111 
115  2  116  111 
116  1  117  116 
117  1  118  116 
118  1  119  116 
119  2  120  112 
120  2  121  120 
121  1  122  112 
122  1  123  112 
123  2  124  120 
124  1  125  120 
125  1  126  124 
126  1  127  124 
127  1  128  124 
128  2  129  121 
129  2  130  129 
130  1  131  121 
131  1  132  121 
132  1  133  129 
133  2  134  129 
134  1  135  134 
135  1  136  134 
136  1  137  134 
137  2  138  130 
138  2  139  138 
139  1  140  130 
140  1  141  130 
141  2  142  138 
142  1  143  138 
143  1  144  142 
144  1  145  142 
145  1  146  142 
146  2  147  139 
147  2  148  147 
148  1  149  139 
149  1  150  139 
150  1  151  147 
151  2  152  147 
152  1  153  152 
153  1  154  152 
154  1  155  152 
155  2  156  148 
156  2  157  156 
157  1  158  148 
158  1  159  148 
159  2  160  156 
160  1  161  156 
161  1  162  160 
162  1  163  160 
163  1  164  160 
164  2  165  157 
165  2  166  165 
166  1  167  157 
167  1  168  157 
168  1  169  165 
169  2  170  165 
170  1  171  170 
171  1  172  170 
172  1  173  170 
173  2  174  166 
174  2  175  174 
175  1  176  166 
176  1  177  166 
177  2  178  174 
178  1  179  174 