6
Lattice="      10.0000000000000000       0.0000000000000000       0.0000000000000000       0.0000000000000000      10.0000000000000000       0.0000000000000000       0.0000000000000000       0.0000000000000000      10.0000000000000000" Properties=species:S:1:pos:R:3:charge:R:1:kinetic_energy:R:1
H   2.8871316250731316E+00   1.4343841804679878E+00   2.0385347470400967E+00   6.2691630243674079E-02   9.0735948584271179E-07
C   2.3810101570994853E+00   1.4004019148976403E+00   1.0796903999798819E+00   1.6307575761855331E-01   3.9129955205246856E-06
H   2.5811297359913383E+00   2.2894324358117384E+00   4.8868765345405718E-01   6.1596220138011359E-02   1.4848082935426018E-07
H   2.6158031654421920E+00   4.9109930820355074E-01   5.3360076628171382E-01   6.1667293316739591E-02   1.9574651577435384E-07
O   9.4288907029178970E-01   1.3836363364748483E+00   1.3908270602527071E+00  -7.5550357200989193E-01   4.1751207617517437E-06
H   4.7728177165973212E-01   1.3796142135226033E+00   5.0649593242093105E-01   4.0647267069290705E-01   2.7941556398442248E-07