6
Lattice="       3.1903160       0.0000000000000000       0.0000000000000000      0.0e0       5.5257880       0.0000000000000000       0.0000000000000000       0.0000000000000000      14.879004" Properties=species:S:1:pos:R:3:charge:R:1:kinetic_energy:R:1
Mo  1.5954444700927439E-06   1.8419302545641467E+00   3.7197509994923230E+00   8.5209069125053194E-01   8.3011571800285563E-03
S   1.5951595953884814E+00   9.2096374584319407E-01   5.2846353663397014E+00  -3.6603666987052019E-01   6.1624902387511303E-02
S   1.5951595952191449E+00   9.2096374592716523E-01   2.1548666332460797E+00  -3.7245236059163478E-01   2.3770151631851127E-02
S   1.5954752994318255E-06   3.6838577455663617E+00   5.2846353680203730E+00  -3.4179564347116909E-01   6.3153305087742834E-02
S   1.5950992420243892E-06   3.6838577456390116E+00   2.1548666331237589E+00  -3.3978185426841723E-01   3.1159048981622851E-02
Mo  1.5951564050162803E+00   4.6048242544366254E+00   3.7197510007719292E+00   5.6237217754812807E-01   4.8599380292845960E-02
