288
Lattice="      11.25e0       0.0e0       0.0e0       0.0e0      11.25e0       0.0e0       0.0e0       0.0e0      38.66e0" Properties=species:S:1:pos:R:3:charge:R:1:kinetic_energy:R:1
Cu	1.75585000025283	8.66350000032029	0.87500351223398	8.23493282524623E-4	0.0434329928539111
Cu	1.75584999987132	1.73270000032985	0.87500351223683	-8.53819387856447E-4	0.200857338234213
Cu	3.51170000024371	6.93079999985414	0.87500351225433	-8.19077261917656E-4	0.149755393018761
Cu	3.51169999993827	10.3961999998691	0.87500351227284	0.00167600124029832	0.0124989368311716
Cu	7.02339999988021	3.46539999998272	0.87500351227829	4.30828860928045E-4	0.0398124429883496
Cu	10.5350999999469	2.44041201336971E-10	0.87500351229163	-6.43018484186797E-4	0.0105326843372009
Cu	5.26754999992408	8.66350000032252	0.87500351229491	3.25977201779182E-4	0.0345152031880374
Cu	10.5350999999219	3.46540000025645	0.87500351229731	8.09213651505658E-4	0.0419646875494974
Cu	5.26755000023713	1.73270000025393	0.87500351231362	-4.35134796271441E-4	0.0605619574426487
Cu	10.5350999999008	6.93080000024867	0.87500351232753	-3.62344296380712E-4	0.0784187613194074
Cu	8.77925000027566	5.19810000030856	0.87500351232785	0.00120085248306445	0.0482642349737792
Cu	1.75585000034273	5.19809999989351	0.87500351234339	-5.81503472467659E-5	0.138826118944345
Cu	8.77924999991014	8.66350000020199	0.87500351235454	-0.00114517807272918	0.11392743200396
Cu	7.02339999991834	10.3961999998781	0.87500351260385	-4.93453964612201E-4	0.0799240083230559
Cu	3.51169999998076	3.46540000021841	0.87500351267961	-0.00148186822877427	0.100436254098109
Cu	8.77925000018318	1.732700000174	0.87500351268816	-1.87947961308055E-4	0.137938073349103
Cu	7.02339999997882	6.93080000023866	0.8750035127109	-3.3644271144162E-4	0.0617970926789123
Cu	5.26755000033052	5.19810000029305	0.87500351272084	-9.05311897110295E-4	0.0445233934617351
Cu	5.26755000028052	3.4653999999913	2.63119999984547	-2.75429336742405E-4	0.105693575206772
Cu	8.77925000019795	3.46539999991345	2.63119999987087	1.82963547320725E-4	0.0332270447561813
Cu	3.51169999990182	8.66349999992311	2.63119999987116	0.0014801907513089	0.101151879641433
Cu	3.51170000027638	1.73270000028897	2.63119999987955	-5.01573354744878E-4	0.0963343882312888
Cu	5.26755000026975	6.9308000003403	2.63119999988066	-6.79601907084049E-4	0.0494820977087942
Cu	10.5350999999297	1.73269999986334	2.63119999996701	-2.34700004488886E-4	0.0342277026403062
Cu	8.77924999990683	6.93079999989149	2.63119999997081	7.03073629697571E-5	0.0436855083702874
Cu	8.77925000031567	2.89775718234896E-10	2.63119999998594	-6.10801416955909E-4	0.0363427429267622
Cu	3.51170000029901	5.19809999986982	2.63119999998642	-7.05172246796337E-4	0.144488732470551
Cu	7.02339999986799	1.73270000024322	2.63120000020134	-1.80155814062388E-4	0.0598314374216363
Cu	1.75585000017809	3.46540000030875	2.63120000023345	-0.00140011342783808	0.0628636292052994
Cu	5.26755000027671	1.93999490078229E-10	2.63120000023964	6.46860604867072E-5	0.0865314243595764
Cu	7.0233999999795	5.19809999990492	2.63120000025043	-7.68504254796909E-4	0.0443383744712633
Cu	1.75585000024734	6.93080000019963	2.63120000026536	0.00263915988944774	0.0506923754596879
Cu	7.0233999999216	8.66350000030297	2.63120000027758	-3.95756930856806E-4	0.0764604480010089
Cu	1.75584999999382	3.43980530370662E-10	2.63120000028081	3.97679972506282E-4	0.00596275681194383
Cu	2.27441868804813E-10	5.19810000026773	2.63120000031405	0.00200198639152838	0.0403764192308368
Cu	10.5350999999719	8.66349999996164	2.63120000033111	-4.13428353565948E-4	0.0477929208469439
Cu	8.77924999999899	8.6635000003381	4.38740351225017	1.82461882673124E-4	0.0127214762431509
Cu	8.77925000031228	5.19809999997293	4.38740351229125	1.70587532004163E-4	0.0759839374397273
Cu	10.5350999999626	6.93079999992691	4.38740351234435	4.29854315992628E-4	0.0652675412518392
Cu	2.3281829403918E-10	3.46539999992009	4.38740351237313	-6.518640173514E-4	0.100537816792324
Cu	1.75585000027418	1.73270000020687	4.38740351257638	-5.63682316958136E-4	0.0769067846371383
Cu	3.51170000022276	10.3961999999118	4.38740351258002	-4.63230492568911E-4	0.00973541724264248
Cu	7.02340000026329	6.93080000018579	4.38740351258656	-6.31003495486837E-4	0.0294512804563774
Cu	5.26755000025216	1.73270000023983	4.38740351259098	-3.47301320747562E-4	0.0317803684871166
Cu	3.51169999995801	6.93079999984479	4.38740351259555	0.00118931114379528	0.026032456054549
Cu	1.75584999990939	8.66350000024031	4.3874035125996	0.00101742323732879	0.0102237753532224
Cu	2.62716093878316E-10	10.3961999999621	4.38740351261765	2.86632395001263E-4	0.0310412841116536
Cu	8.77924999983607	1.7327000003182	4.38740351262597	1.77910315466434E-4	0.00415622051575589
Cu	7.02340000019835	3.46540000029568	4.38740351264272	0.00106075026705454	0.0990183822901945
Cu	3.51169999992582	3.46539999983101	4.38740351266605	-3.554556286538E-4	0.073139223305812
Cu	1.75585000033755	5.19810000028341	4.38740351267595	-3.41228787346992E-4	0.0576355374935531
Cu	7.02339999989943	10.3961999999403	4.38740351267809	-4.8137353445199E-4	0.0737800332911621
Cu	5.26755000030717	5.19809999998568	4.38740351268689	3.02662380011753E-4	0.0591134144469659
Cu	5.26755000018126	8.66350000024602	4.38740351274852	-2.85776670292393E-4	0.0407543014890082
Cu	7.0233999998517	5.19809999998999	6.14359999985449	7.89876893252384E-4	0.0318580607550739
Cu	5.26754999984677	10.3961999999297	6.14359999986225	1.08827633084729E-4	0.0136321613386472
Cu	7.0233999998281	1.7326999999849	6.1435999998662	3.60450981922611E-4	0.0977893088012989
Cu	1.75584999987532	2.32437961067392E-10	6.14359999987375	-2.82422722207798E-4	0.0802439962746669
Cu	3.1325625896398E-10	1.73270000029131	6.14359999989645	5.65609413762047E-4	0.102036515587975
Cu	3.51169999997544	8.66350000019007	6.14359999995358	7.0526342646815E-4	0.0826035116358247
Cu	5.26754999986805	6.93080000022099	6.14359999998882	0.00120706063079901	0.0335335893791448
Cu	8.77924999998827	6.93079999995765	6.14360000018718	3.69346510826318E-4	0.0229206641470354
Cu	2.04560381694153E-10	8.66350000027624	6.14360000020167	-0.00136367682214455	0.0646602559498309
Cu	8.77925000024412	3.46539999988085	6.14360000020891	9.98723905503596E-4	0.14054394703118
Cu	3.51170000022121	1.73269999988311	6.14360000021287	-0.00110750849756869	0.00372408535434115
Cu	5.26755000021513	3.46539999990284	6.14360000022677	-1.14522228299663E-4	0.0269595785032697
Cu	1.75585000019109	3.46539999989304	6.14360000023809	-8.13633938154368E-4	0.00572972077623315
Cu	1.75584999984346	6.93080000022237	6.14360000025506	-4.02558623068927E-4	0.0184602608243409
Cu	7.02340000029832	8.66350000025286	6.1436000002931	-4.55062999254352E-4	0.0887500243579101
Cu	3.51169999984891	5.19810000031993	6.14360000029352	-6.78496606786538E-4	0.0494976381541668
Cu	8.77924999990405	1.94432217041141E-10	6.14360000034	-0.00146926824094606	0.0746967912894666
Cu	10.5350999998377	5.19810000021365	6.14360000034659	7.3353658216746E-4	0.0888140018753599
Cu	3.51169999999085	10.3961999999451	7.89980351222797	7.56122115170399E-4	0.0306527899279196
Cu	8.77924999990177	8.66349999998288	7.89980351222868	-0.00160399282415113	0.0861391861036744
Cu	7.02339999997931	6.93079999988072	7.8998035122546	-3.44982713260222E-4	0.0961734522212838
Cu	8.77924999996586	1.7327000001891	7.89980351233208	1.8067756765916E-4	0.00120651177083039
Cu	5.26755000026163	5.19810000026937	7.89980351235552	-2.11969812371038E-4	0.0839586509997595
Cu	5.26755000018438	1.73269999992664	7.89980351236258	-7.84692114896402E-4	0.0972665041513736
Cu	1.75584999990104	5.19809999989133	7.89980351236813	8.04244457661696E-5	0.132964670687231
Cu	1.75585000024339	1.73269999995469	7.8998035123731	4.77928923523052E-4	0.061741667639779
Cu	10.5350999998944	2.63658763364653E-10	7.89980351238771	-0.00103634977349998	0.0337238745485216
Cu	10.5350999999599	3.46539999984218	7.89980351259527	6.81441229412272E-4	0.105307168909654
Cu	3.51169999988161	6.93079999998636	7.89980351261188	1.29106370176046E-4	0.192751882664622
Cu	7.02340000019191	10.3961999998288	7.89980351261869	3.05870724996993E-5	0.0632576012635862
Cu	3.51170000022969	3.4653999999262	7.89980351263558	-7.45722801566373E-4	0.110915518475628
Cu	8.77925000027391	5.19809999985341	7.89980351264124	5.96959737652725E-4	0.0234569633699894
Cu	7.02340000030302	3.46540000031915	7.89980351265204	2.03721776767196E-4	0.154874093326871
Cu	10.5350999999722	6.93080000025198	7.89980351270195	-4.32111264752067E-4	0.147684226371898
Cu	1.7558500002426	8.66349999991227	7.89980351271355	1.20703502423325E-4	0.102587911921377
Cu	5.26755000020241	8.66349999987895	7.89980351274592	3.00015106272866E-4	0.0376691497524289
Cu	8.77925000030659	6.93080000017391	9.6559999998452	-3.31376167419961E-4	0.109873669359189
Cu	3.5117000002989	1.73269999990564	9.655999999858	-3.29231611750913E-4	0.113335782297948
Cu	5.26754999985061	10.3961999998629	9.655999999863	-6.74757946580229E-4	0.0269558531236352
Cu	5.26754999995534	3.46539999985933	9.655999999881	6.77117401362892E-4	0.145390003360038
Cu	7.02340000025051	5.19810000034204	9.6559999998899	2.66070631541382E-4	0.0946062233481685
Cu	7.02339999996362	1.73270000026303	9.6559999999005	3.64191999157271E-4	0.0251349161396773
Cu	5.26754999990609	6.93080000028552	9.6559999999636	-6.08724180922948E-4	0.200769165552748
Cu	1.75585000030522	6.93080000034171	9.6560000001777	-5.08319409366465E-4	0.115942628640709
Cu	10.5350999998468	1.73270000034486	9.656000000181	-6.39050862769608E-5	0.0636403046684486
Cu	8.77924999988656	3.46540000024765	9.6560000001957	0.00170415430436499	0.0317292936693196
Cu	8.77925000029286	10.3961999999892	9.656000000258	5.14244269213649E-4	0.0240697692826446
Cu	1.75584999985033	3.46540000020028	9.6560000002666	1.42665426924538E-4	0.167678792533605
Cu	7.02340000023523	8.66350000023894	9.65600000027	-7.75624363432925E-4	0.0224853022146158
Cu	1.75585000027467	10.3961999998377	9.656000000296	2.72551478062155E-5	0.074606243064725
Cu	3.51169999989338	5.19809999991131	9.6560000002982	2.22997652807422E-4	0.0514459056533419
Cu	3.51170000029032	8.66349999991221	9.6560000003004	3.63082529162284E-5	0.0934466758927919
Cu	2.76897619661929E-10	8.66350000024501	9.6560000003226	8.40236163870856E-4	0.13085700367454
Cu	10.5350999999609	5.19810000021289	9.6560000003295	1.25024732653856E-4	0.0376784667118779
Cu	8.77924999993681	1.73269999990144	11.4122035122282	-8.66613416015127E-5	0.0254857430863855
Cu	7.02340000023621	3.39131450451283E-10	11.4122035122426	4.21742504183698E-4	0.107959886230331
Cu	1.7558500002983	5.19809999994578	11.4122035122636	-4.09671073128948E-4	0.0979837093651544
Cu	1.75585000031269	8.66349999995015	11.4122035122674	7.634060387538E-4	0.0258637754765694
Cu	5.26755000018836	8.66349999992379	11.4122035122742	-6.72638670348391E-4	0.0448097807897446
Cu	8.77925000023129	8.66350000026565	11.4122035122743	-2.83519460117176E-4	0.0310961863012046
Cu	5.26755000028211	1.73270000021487	11.4122035122791	7.32899810360621E-4	0.046213141686155
Cu	3.51169999994962	3.46539999985554	11.4122035122813	-0.00133301682486398	0.0176648019344136
Cu	3.17887355122061E-10	6.93080000018631	11.4122035122847	0.00231133635656633	0.0519630697300991
Cu	7.02340000019845	6.9307999999348	11.4122035123037	2.63427423924156E-4	0.059594286200933
Cu	7.02339999984897	3.46540000021148	11.4122035123178	-2.28638871957898E-4	0.0816362012912554
Cu	3.51169999993445	3.01192321040251E-10	11.4122035123571	5.47608976683378E-4	0.0244399133131145
Cu	8.77924999992157	5.19810000033105	11.4122035123658	0.0015772349034755	0.00312986221491153
Cu	2.32720148508955E-10	2.42649848966494E-10	11.4122035126148	-5.37045507604361E-4	0.0375448519059196
Cu	1.75584999987301	1.73269999997309	11.4122035126276	2.35548384253548E-4	0.0584545759819048
Cu	5.26755000031732	5.19809999998456	11.4122035126523	-8.10025714017115E-4	0.106891602009339
Cu	2.18922976694374E-10	3.4654000001895	11.4122035126573	1.72903760184084E-4	0.0137353409242512
Cu	3.51170000032206	6.93079999996377	11.4122035127009	-3.87758473070932E-4	0.0915868255186703
Cu	1.75585000026962	3.46540000030216	13.1683999998512	-6.95031516247724E-4	0.0561397602479265
Cu	3.51169999989986	5.19809999999071	13.1683999998622	-0.00231122730985511	0.0500180592537276
Cu	10.5350999999857	8.6635000002251	13.1683999998776	9.16427075889459E-4	0.0439873680638116
Cu	5.26754999982465	6.93080000032402	13.1683999998962	1.45413478019663E-4	0.0886313505471012
Cu	7.02340000027924	5.19809999989425	13.1683999999075	2.21341041363843E-4	0.0778254826782117
Cu	8.77924999998875	3.46540000034459	13.1683999999105	5.77808257872903E-4	0.031588054891103
Cu	1.75585000024153	2.23868097953092E-10	13.1683999999804	-2.04966799445927E-4	0.0380903481813456
Cu	10.5350999999816	5.19809999992367	13.1683999999862	-2.82293113576415E-4	0.0396896065263887
Cu	1.75585000034975	6.93080000034238	13.1684000001819	-6.88117383683462E-4	0.0744066757998419
Cu	7.02339999999944	8.66349999997998	13.1684000002206	1.96869288064505E-4	0.0638427466633481
Cu	5.26755000024786	3.46539999999693	13.168400000238	-0.00109668731191803	0.0543322107355705
Cu	3.51079345118116E-10	1.73270000034652	13.1684000002392	-1.86524059646587E-4	0.020751272557824
Cu	8.77925000024572	6.93079999986754	13.1684000002494	8.42980303444208E-4	0.00768032120632257
Cu	7.02339999987301	1.7326999999785	13.1684000002585	4.80428580729608E-4	0.0274339849212213
Cu	8.77924999999792	1.87286383615398E-10	13.1684000002868	2.34184651688452E-4	0.0285546909861182
Cu	3.51169999985788	1.73270000032277	13.16840000032	1.01006708128182E-4	0.0217903819264594
Cu	3.51170000029932	8.66349999985427	13.1684000003227	6.33655063905891E-4	0.0962400489013366
Cu	5.26754999993018	3.14283028071642E-10	13.1684000003475	7.46827199904488E-4	0.00158555300814293
Si	10.4552787509215	5.68072681648239	16.3302510506634	-0.07427943937184	0.0784679821944395
Si	2.26320482088692	7.16592246291225	16.4749129979632	-0.34404443290516	0.0473038233710499
Si	2.94226279617842	10.7783404354538	16.6902438584701	-0.0914978577942556	0.0398610316516389
Si	0.704921799753681	5.85216811666048	16.7286372726316	-0.126183042290547	0.0269044599191766
Si	0.648178198822918	10.9122857260315	16.762381362533	0.0537036453968724	0.0121626090107286
Si	3.23581356843946	8.81662009046315	16.8495389097011	-0.167999376857374	0.0392421532415666
Si	9.32844336727902	2.24809857204361	16.9580869796342	-0.243618404066585	0.193711164833164
Si	5.83088708823116	3.51929539209085	17.1412032340619	0.175171412501017	0.0313136246744619
Si	1.19828080235465	3.06455795217481	17.1772634713354	-0.00565328219009142	0.154910520066135
Si	7.34745017467524	4.84798364912011	17.6261357122041	0.0138372879940252	0.0369765874486735
Si	9.09468417588008	5.04180324956243	17.8419641530835	-0.144961713505815	0.0515175672841494
Si	5.9578450916418	6.95768266744655	17.8643289755322	-0.0329323037549596	0.0470037087865702
Si	4.33445562449299	2.10820501685963	17.9048065954479	-0.0456473495768881	0.0184986324831014
Si	5.12864430250585	8.80099796592033	17.9690121287058	-0.133852515672358	0.0585973652437474
Si	7.49812657375906	10.0511714264915	17.9897180450763	-0.222702176106261	0.0868360224248952
Si	3.65790668313268	3.1969183768202	18.3265376481843	0.0373594792686536	0.00493056220508517
Si	5.35103825767828	11.1519261662533	18.4565775490112	-0.135674998413055	0.0270043820306999
Si	8.6071102620525	1.00612210737706	18.5804346312558	-0.00723790694082016	0.0449855760318142
Si	1.67348402585205	0.137997716516478	19.1952056755176	-0.251101838847447	0.10172442296372
Si	0.461029031100516	10.3453227889813	19.640775776321	-0.23012671822256	0.185370309957356
Si	8.12692371439005	8.36997144451219	19.6880722415244	-0.149040912096183	0.0200230427466365
Si	7.4286288172505	6.99886806688711	19.776941028998	-0.0554669845462987	5.26574057580592E-4
Si	2.39573537227354	4.62435343845548	19.7917154436612	0.0933058515460221	0.224737203031579
Si	4.1745838015972	5.91564780386075	20.1810793850242	-0.114772541598572	0.0352603359066958
Si	8.5695000798776	1.95268714240434	20.6312407019061	0.0104263320394082	0.0124306021033617
Si	9.87240410969957	1.83128743945722	20.6911037444237	-0.0168066104343003	0.0583044729162334
Si	2.03177691349942	6.49412090697723	21.0750708656913	-0.209319795923438	0.12546772838773
Si	8.19475895723229	6.19707057948371	21.1113250580997	0.0445986829289855	0.0617653267726872
Si	6.81058274389743	5.05412368528271	21.3782105432003	0.00134959562480708	0.00935197954523837
Si	7.06848590478645	10.5070834891681	21.3788020071613	-0.10128427466995	0.0668640507536877
Si	5.26131584176851	8.81340907144626	21.4201504513551	-0.0348901267900121	0.0564037698733857
Si	2.50326631070233	0.00576773015210378	21.4229299718627	0.0483023825750637	0.0279810002962176
Si	1.03489912957446	4.93548992132941	21.4748372564496	-0.0602967680794624	0.0510292422473884
Si	1.09949181856941	2.96951264607785	21.8714560336809	-0.247876660030954	0.107340239552992
Si	10.5708072717482	9.97729652984486	21.9464113651499	0.00134606833028572	0.0297068131317784
Si	6.68083198923104	1.1502080750973	21.9640723190179	-0.0235337512410556	0.00877752312264598
Si	8.27859233062406	3.49698603808729	22.04091545153	0.293727916715433	0.0021729619587844
Si	4.2305749368854	1.24632534397746	22.6051312783553	0.019721364422975	0.181858624868535
Si	10.0573861876736	11.0102696976192	22.690131733879	-0.0755618013098909	0.0621108805252937
Si	5.96012993087394	10.1833827935293	22.7891180831062	0.272276144521766	0.00745615922596947
Si	4.12039618288074	6.92953600471161	22.8461287795435	-0.244101160953222	0.00179520968674308
Si	3.49628707753674	2.64111010184465	22.9945084109926	-0.155383634317213	0.16591904436248
Si	8.97182345874634	7.36691462595102	23.2562166482306	0.161322168335155	0.0252526806369314
Si	6.06364694792909	9.15734709241097	23.3412114371828	0.303496916074312	0.153780231417982
Si	7.63217490310326	4.5997134919241	23.3567284455425	0.24652441867108	0.0398307470708891
Si	4.67060951121167	3.55651769170884	23.4265950210915	-0.220519211401482	0.175576886470867
Si	7.58959597131966	6.38438071636601	23.7044832088548	-0.063994301622877	0.03214908448698
Si	0.554934038026649	9.62145484870118	23.7307011106844	0.0830678202362183	0.219339273841214
Si	8.94459061241337	3.3528428208969	23.8501396478085	0.170516890770436	0.0385277880201436
Si	2.03085832108839	10.8503993507401	24.1607320203322	-0.279221655243893	0.0173940944066529
Si	10.5072648370472	8.15478505248793	24.1852917923679	0.179076726494939	0.0460676691433976
Si	10.3591408022139	2.09422945527787	24.4231922690962	-0.0496600059509769	0.0361660592279471
Si	8.07248494414999	1.61530033924482	24.4373193281313	0.127237248256532	0.115145508267005
Si	4.09732662796144	8.17589486531981	24.6042465485701	-0.123108830749203	0.0166583833570376
Si	9.23387591864687	8.20228992963269	24.646636646166	0.0973187775725193	0.0893542137160873
Si	10.7898186939585	4.85442451865751	24.6726551152607	0.145540287745354	0.031856035888291
Si	5.06398267815495	10.7983158903815	25.0219450199776	0.0521456467652937	0.0513485744829021
Si	8.22170782559861	3.26807505881826	25.0455690788673	0.161730822263133	0.185615569125158
Si	1.94810976529372	8.84675973388482	25.3884445895847	0.0523661870109149	0.102129450263392
Si	8.57969681755413	9.85715851304733	25.554039129833	-0.154141970535362	0.00107042278846342
Si	8.02319306929259	6.36196052318451	25.9164784904454	-0.227692061509884	0.00805723610898714
Si	6.00095733942619	1.42139203199518	26.0088684419025	-0.0894269494548912	0.00773132169184142
Si	4.25276088234554	4.65303218286679	26.1737763857547	-0.0791667385729253	0.033498137885868
Si	9.82719341198374	10.7055313200377	26.2549032301168	-0.0866352041087151	0.0664922679200371
Si	6.88288413291582	11.221660009593	26.7781658738166	0.0996650013333387	0.0133004847646658
Si	3.45251001845308	1.28723374281856	27.0367311856643	-0.506461411254867	0.0377947994545332
Si	9.58362727217453	1.66338109108203	27.0610314694694	-0.149567080188888	0.116047242552669
Si	0.724647535559388	8.80143666509149	27.0891133737139	-0.110816806633977	0.0182098491866259
Si	2.11761210001519	5.75620877933516	27.3814082603411	0.0420161094648992	0.0909499164661988
Si	1.97291106707815	0.458645559369384	27.8181676335543	-0.656272593349603	0.0451443507176428
Si	4.32032557827288	6.99954161058592	27.8408097631036	-0.321848850480301	0.0629478438938128
Si	3.20398579995139	8.31514137010573	28.0555244901312	-0.403268752928632	0.0357883314005352
Si	6.97087529069549	5.00958731062935	28.1799569652715	-0.354259188104256	0.015093101060967
Si	0.315934746514603	6.57356600922616	28.2785782697327	-0.05779780015372	0.0786193956223609
Si	3.13356505965411	4.92618010877892	28.5155707079443	0.0258815909486412	0.0377233316475866
Si	0.423606336496051	4.29760144650211	28.6951979953495	0.160493055400726	0.0220243655684021
Si	5.61076228719355	11.0485251178797	28.7234759532898	-0.225066473413373	0.0688814319147371
Si	5.69876327293346	3.68766821473217	28.9675603481535	-0.276785760934662	0.0891148022132076
Si	7.4231096533373	10.3133420394941	29.9104053290277	-0.07092737678171	0.0566613571616605
Si	9.52283095166389	2.43422605930274	30.0853095845529	-0.11305227071282	0.0212962301492566
Si	2.03710638016649	9.61568866032844	30.7009164154317	-0.42551538826017	0.224179428179577
Si	6.86670061986517	3.43206928011709	30.7633938876703	0.0524893655790275	0.101002569183729
Si	11.141576400325	5.67086365802226	30.8274325927292	8.26001047790737E-4	0.120754231484905
Si	4.77073533127267	0.735211982043712	30.9944372100901	-0.0632782599545987	0.0178848447856953
Si	9.53346667586291	10.0758936191151	31.0483246759183	-0.0878405678515106	0.0501179846124194
Si	1.66801969375708	3.99073263150147	31.1816199074934	0.121001365421714	0.0240830820790791
Si	8.51337687708808	3.50544883344797	31.2834106585286	-0.138562471173236	0.0184079975846271
Si	0.993500710701588	5.70440216693666	31.3513244974517	0.220076966986605	0.0206952959112199
Si	2.76687290000909	5.03719276299274	31.4351505339477	0.10531618390712	0.103966149149675
Si	9.26727856495862	8.22271206696753	31.6066179424971	-0.0702671563183834	0.00368103952584838
Si	4.91128830671715	5.23288577112269	31.7037787013088	-0.034309669366654	0.0104551130178693
Si	11.2493088801172	1.5155535515393	31.7129439029183	0.0636623553120441	0.00219450219559345
Si	3.03416962330559	10.7284257195485	31.742396546869	-0.153776307326694	0.102402735869963
Si	4.48194749092379	7.49163065502509	32.3239412229978	0.259152591927609	5.23834799793065E-5
Si	3.6246169746595	6.04769741604057	32.4137111550465	0.107619451248973	0.108162642341392
Si	5.54773716745187	0.431031764879928	32.4475511413355	-0.0623543045614587	0.015452261647828
Si	1.19376590992708	8.27004416227466	32.4950978612089	0.238595044088785	0.0319665962489346
Si	11.1849544495461	9.86101454906317	32.6723339922562	0.319567955031336	0.0773255437933809
Si	0.0255441963662884	2.56891684678653	32.7202242453962	0.250951187472585	0.0613946905289942
Si	4.61508126143581	10.3800909610968	32.8722315779494	0.0787715070000292	0.0953679294866174
Si	3.33733340366909	7.49211682637243	32.8794951445278	0.144278294143184	0.0684392088237875
Si	8.8624843001839	10.2404132122963	32.8988537693116	-0.191280732077056	0.0956585116342048
Si	10.0587326945191	1.18535635255192	32.9141289083927	0.237291180293924	0.0349780145185001
Si	7.69857262974233	1.891858355046	33.0251835428823	0.0722404426835901	0.0762097064073814
Si	0.433937173911498	8.3383098947885	33.7558848229924	0.132023773522937	0.0679040623479277
Si	3.1795458042185	2.8338004608243	34.0999194895157	0.0142794586175525	0.0495582860137313
Si	0.722993145805968	9.76923932818036	34.3143142772578	0.115271334798612	0.0418067327805227
Si	10.3471755291552	7.57994186139786	34.4841373900051	-0.0287400511133553	0.0679620968954534
Si	11.1986136205678	3.40215959945135	34.7966304893634	0.270134104501478	0.0717484915589965
Si	5.48713550239788	8.6064340586882	34.8282623482114	0.0757140765055659	0.0186578772513817
Si	2.22122071608163	9.4184568382357	34.9215646424869	-0.16798737829845	0.0195582585587473
Si	6.86689021964511	4.57436695597799	35.0044777748955	-0.376449652527292	0.084269705971043
Si	0.764127129082745	4.49238544900124	35.0125451092031	0.133728036849031	0.015593535394005
Si	7.69230410154844	8.33254296149967	35.2081399606551	-0.271507170054621	0.0312861979762326
Si	1.22047060335137	2.18698832469719	35.2468361289782	0.673690699569616	0.0131341617950915
Si	6.77397899858589	1.6200449066105	35.2930824560671	0.0981708666492076	0.0467550737804836
Si	6.0410158142073	3.51282884249018	35.3104149698735	-0.120954978948596	0.0504418369275676
Si	5.26101550319243	2.23600652893044	35.3826953390247	0.173274629609848	0.110756140890553
Si	2.02544740849562	3.01699700471685	35.5749709231556	0.626861202824138	0.0130829137173393
Si	10.0599535542251	10.2005227341016	35.5845358369311	0.0631692049619215	0.074145911756176
Si	4.76897573358381	9.87037787398345	35.7131977014816	0.169994033819931	0.13114805406584
Si	3.80756374679316	1.78029242047378	35.7744697513378	0.343860937407965	0.00420250833180864
Si	9.25330382068254	5.02975192696112	35.8665029785229	0.043712551518627	0.125411393866707
Si	9.71787592330215	1.67126382170142	36.1440152040818	0.257074849650112	0.164396368067185
Si	2.87629271473725	0.684568484572342	36.1570048411954	0.231401377373945	0.0217130289776617
Si	5.08205704276869	0.511374505050332	36.1790287845843	0.39762452790383	0.0982973571228486
Si	8.25575158713062	6.83868960936745	36.1973837228214	0.146505518312449	0.0203357393806863
Si	0.37201585226862	2.85249794294055	36.5367297362905	0.422104687280011	0.251813233437535
Si	5.65209108588515	10.1173417979132	36.7143668924677	0.0636975044300918	0.00371237876621338
Si	3.53239204699244	4.04640661661277	36.7691709575723	0.0258957597028329	0.16342653197697
Si	0.368492089448039	0.416725500519419	36.8164784167427	0.345135931558667	0.0247123419162263
Si	1.98349709681895	2.63892102765621	36.9021703086918	0.397207214046416	0.0287361538932794
Si	8.55572265716908	4.95577826562941	37.1647473425416	0.170935533781632	0.0622299368340236
Si	10.1287869453243	2.51495143203254	37.4604969982407	0.150759752974361	0.00762007455830755
Si	8.93767025620062	10.4720831013097	37.5884324574827	-0.3173226599674	0.196857168515644
Si	2.84550836675841	10.9126969539507	37.6449973248161	0.14211074724642	0.115927676787544
Si	0.923194928106237	6.34373161076485	37.7360581409147	-0.232832007569891	0.0352381645592737
Si	5.89911172274156	6.24684017574424	38.0425240338885	-0.219261171170008	0.020706659033877
Si	4.84217256594637	3.76324513938613	38.2748898214486	0.05241486822842	0.166252725685933
Si	9.0814382577185	6.62323666664187	38.3206524869683	0.00379169452228245	0.0810689664439641
Si	6.57567924837116	3.2144074240973	38.4196425349904	0.0625781332014173	0.0480087892937343
Si	9.73432526903184	1.4889322739497	38.4985836306881	-0.0100062607973017	0.0657508803615774
Si	7.36664432011467	4.6984690622666	38.5229276406215	0.0978719111301216	0.0842463173780492
Si	10.5779492878302	10.0115335346092	38.5542077168699	-0.00857478591416339	0.0210790340628707