144
Lattice="      11.2500000000000000       0.0000000000000000       0.0000000000000000       0.0000000000000000      11.2500000000000000       0.0000000000000000       0.0000000000000000       0.0000000000000000      22.8717383117133863" Properties=species:S:1:pos:R:3:charge:R:1:kinetic_energy:R:1
Si   7.4981265737590626E+00   1.0051171426491539E+01   2.1997180450763354E+00  -2.2270217610626108E-01   8.6836022424895243E-02
Si   8.5695000798775975E+00   1.9526871424043415E+00   4.8412407019061465E+00   1.0426332039408237E-02   1.2430602103361674E-02
Si   7.3474501746752336E+00   4.8479836491201054E+00   1.8361357122041078E+00   1.3837287994025171E-02   3.6976587448673451E-02
Si   4.2360633649605073E-01   4.2976014465021048E+00   1.2905197995349472E+01   1.6049305540072645E-01   2.2024365568402090E-02
Si   1.2204706033513657E+00   2.1869883246971944E+00   1.9456836128978185E+01   6.7369069956961614E-01   1.3134161795091529E-02
Si   3.6246169746594981E+00   6.0476974160405712E+00   1.6623711155046482E+01   1.0761945124897299E-01   1.0816264234139221E-01
Si   1.1198613620567846E+01   3.4021595994513505E+00   1.9006630489363438E+01   2.7013410450147823E-01   7.1748491558996513E-02
Si   1.0128786945324331E+01   2.5149514320325439E+00   2.1670496998240697E+01   1.5075975297436095E-01   7.6200745583075531E-03
Si   9.0814382577184940E+00   6.6232366666418665E+00   2.2530652486968314E+01   3.7916945222824516E-03   8.1068966443964136E-02
Si   9.2319492810623682E-01   6.3437316107648476E+00   2.1946058140914730E+01  -2.3283200756989064E-01   3.5238164559273651E-02
Si   2.8762927147372488E+00   6.8456848457234187E-01   2.0367004841195431E+01   2.3140137737394451E-01   2.1713028977661673E-02
Si   4.1745838015972030E+00   5.9156478038607485E+00   4.3910793850241614E+00  -1.1477254159857164E-01   3.5260335906695840E-02
Si   3.7201585226861988E-01   2.8524979429405515E+00   2.0746729736290504E+01   4.2210468728001072E-01   2.5181323343753470E-01
Si   9.5228309516638880E+00   2.4342260593027385E+00   1.4295309584552927E+01  -1.1305227071281987E-01   2.1296230149256593E-02
Si   5.5493403802664909E-01   9.6214548487011751E+00   7.9407011106843566E+00   8.3067820236218282E-02   2.1933927384121363E-01
Si   7.2299314580596752E-01   9.7692393281803618E+00   1.8524314277257794E+01   1.1527133479861185E-01   4.1806732780522694E-02
Si   4.2305749368854020E+00   1.2463253439774629E+00   6.8151312783553166E+00   1.9721364422975007E-02   1.8185862486853491E-01
Si   4.7707353312726664E+00   7.3521198204371241E-01   1.5204437210090065E+01  -6.3278259954598681E-02   1.7884844785695308E-02
Si   8.2217078255986085E+00   3.2680750588182574E+00   9.2555690788672766E+00   1.6173082226313262E-01   1.8561556912515767E-01
Si   9.5836272721745317E+00   1.6633810910820277E+00   1.1271031469469355E+01  -1.4956708018888776E-01   1.1604724255266885E-01
Si   3.0341696233055888E+00   1.0728425719548492E+01   1.5952396546869030E+01  -1.5377630732669445E-01   1.0240273586996337E-01
Si   4.3344556244929917E+00   2.1082050168596265E+00   2.1148065954479338E+00  -4.5647349576888097E-02   1.8498632483101421E-02
Si   5.1286443025058501E+00   8.8009979659203292E+00   2.1790121287058417E+00  -1.3385251567235823E-01   5.8597365243747389E-02
Si   1.1937659099270801E+00   8.2700441622746563E+00   1.6705097861208852E+01   2.3859504408878518E-01   3.1966596248934644E-02
Si   5.6520910858851536E+00   1.0117341797913239E+01   2.0924366892467734E+01   6.3697504430091811E-02   3.7123787662133793E-03
Si   7.3666443201146699E+00   4.6984690622665948E+00   2.2732927640621451E+01   9.7871911130121614E-02   8.4246317378049246E-02
Si   6.4817819882291761E-01   1.0912285726031485E+01   9.7238136253296159E-01   5.3703645396872446E-02   1.2162609010728576E-02
Si   1.0348991295744632E+00   4.9354899213294114E+00   5.6848372564496064E+00  -6.0296768079462382E-02   5.1029242247388425E-02
Si   1.0359140802213863E+01   2.0942294552778709E+00   8.6331922690962166E+00  -4.9660005950976860E-02   3.6166059227947127E-02
Si   1.6680196937570764E+00   3.9907326315014693E+00   1.5391619907493357E+01   1.2100136542171436E-01   2.4083082079079124E-02
Si   1.1184954449546066E+01   9.8610145490631691E+00   1.6882333992256214E+01   3.1956795503133595E-01   7.7325543793380927E-02
Si   1.0570807271748214E+01   9.9772965298448621E+00   6.1564113651499222E+00   1.3460683302857213E-03   2.9706813131778382E-02
Si   5.4871355023978756E+00   8.6064340586881940E+00   1.9038262348211390E+01   7.5714076505565941E-02   1.8657877251381710E-02
Si   4.9112883067171520E+00   5.2328857711226915E+00   1.5913778701308825E+01  -3.4309669366654028E-02   1.0455113017869264E-02
Si   1.0789818693958512E+01   4.8544245186575132E+00   8.8826551152607234E+00   1.4554028774535421E-01   3.1856035888291008E-02
Si   3.6849208944803891E-01   4.1672550051941926E-01   2.1026478416742684E+01   3.4513593155866662E-01   2.4712341916226323E-02
Si   1.0057386187673567E+01   1.1010269697619179E+01   6.9001317338789638E+00  -7.5561801309890875E-02   6.2110880525293691E-02
Si   2.3957353722735419E+00   4.6243534384554836E+00   4.0017154436611744E+00   9.3305851546022112E-02   2.2473720303157899E-01
Si   6.0009573394261890E+00   1.4213920319951785E+00   1.0218868441902494E+01  -8.9426949454891158E-02   7.7313216918414177E-03
Si   5.2610155031924251E+00   2.2360065289304365E+00   1.9592695339024726E+01   1.7327462960984841E-01   1.1075614089055284E-01
Si   3.1795458042184963E+00   2.8338004608242957E+00   1.8309919489515686E+01   1.4279458617552532E-02   4.9558286013731342E-02
Si   4.2527608823455383E+00   4.6530321828667924E+00   1.0383776385754686E+01  -7.9166738572925333E-02   3.3498137885867953E-02
Si   5.6107622871935501E+00   1.1048525117879697E+01   1.2933475953289763E+01  -2.2506647341337338E-01   6.8881431914737071E-02
Si   4.4819474909237886E+00   7.4916306550250864E+00   1.6533941222997829E+01   2.5915259192760898E-01   5.2383479979306486E-05
Si   3.4962870775367421E+00   2.6411101018446503E+00   7.2045084109925641E+00  -1.5538363431721347E-01   1.6591904436248012E-01
Si   1.0577949287830194E+01   1.0011533534609182E+01   2.2764207716869858E+01  -8.5747859141633853E-03   2.1079034062870677E-02
Si   5.9601299308739391E+00   1.0183382793529333E+01   6.9991180831062447E+00   2.7227614452176585E-01   7.4561592259694727E-03
Si   9.2672785649586142E+00   8.2227120669675262E+00   1.5816617942497057E+01  -7.0267156318383428E-02   3.6810395258483840E-03
Si   6.8667006198651732E+00   3.4320692801170893E+00   1.4973393887670300E+01   5.2489365579027503E-02   1.0100256918372864E-01
Si   8.9445906124133696E+00   3.3528428208968957E+00   8.0601396478084588E+00   1.7051689077043575E-01   3.8527788020143575E-02
Si   1.0507264837047172E+01   8.1547850524879255E+00   8.3952917923678818E+00   1.7907672649493867E-01   4.6067669143397640E-02
Si   4.6150812614358081E+00   1.0380090961096771E+01   1.7082231577949404E+01   7.8771507000029217E-02   9.5367929486617431E-02
Si   7.6985726297423254E+00   1.8918583550460011E+00   1.7235183542882243E+01   7.2240442683590089E-02   7.6209706407381381E-02
Si   4.3203255782728833E+00   6.9995416105859221E+00   1.2050809763103592E+01  -3.2184885048030143E-01   6.2947843893812805E-02
Si   1.0994918185694067E+00   2.9695126460778454E+00   6.0814560336808796E+00  -2.4787666003095410E-01   1.0734023955299224E-01
Si   6.0636469479290840E+00   9.1573470924109728E+00   7.5512114371828361E+00   3.0349691607431240E-01   1.5378023141798239E-01
Si   2.0254474084956198E+00   3.0169970047168500E+00   1.9784970923155552E+01   6.2686120282413782E-01   1.3082913717339261E-02
Si   5.8991117227415595E+00   6.2468401757442429E+00   2.2252524033888509E+01  -2.1926117117000832E-01   2.0706659033877028E-02
Si   9.2533038206825413E+00   5.0297519269611239E+00   2.0076502978522846E+01   4.3712551518626963E-02   1.2541139386670658E-01
Si   5.9578450916417962E+00   6.9576826674465444E+00   2.0743289755321896E+00  -3.2932303754959591E-02   4.7003708786570224E-02
Si   2.2632048208869202E+00   7.1659224629122482E+00   6.8491299796321881E-01  -3.4404443290515996E-01   4.7303823371049908E-02
Si   8.5133768770880796E+00   3.5054488334479732E+00   1.5493410658528632E+01  -1.3856247117323583E-01   1.8407997584627116E-02
Si   1.9729110670781473E+00   4.5864555936938389E-01   1.2028167633554334E+01  -6.5627259334960275E-01   4.5144350717642771E-02
Si   8.9376702562006205E+00   1.0472083101309742E+01   2.1798432457482676E+01  -3.1732265996739972E-01   1.9685716851564444E-01
Si   1.0059953554225123E+01   1.0200522734101625E+01   1.9794535836931097E+01   6.3169204961921466E-02   7.4145911756176033E-02
Si   8.2557515871306162E+00   6.8386896093674467E+00   2.0407383722821407E+01   1.4650551831244885E-01   2.0335739380686321E-02
Si   9.5334666758629112E+00   1.0075893619115080E+01   1.5258324675918306E+01  -8.7840567851510620E-02   5.0117984612419425E-02
Si   2.5032663107023261E+00   5.7677301521037805E-03   5.6329299718626586E+00   4.8302382575063696E-02   2.7981000296217574E-02
Si   7.6321749031032580E+00   4.5997134919240992E+00   7.5667284455425152E+00   2.4652441867108044E-01   3.9830747070889135E-02
Si   1.0455278750921462E+01   5.6807268164823910E+00   5.4025105066342083E-01  -7.4279439371840006E-02   7.8467982194439526E-02
Si   8.9718234587463410E+00   7.3669146259510194E+00   7.4662166482305778E+00   1.6132216833515489E-01   2.5252680636931448E-02
Si   1.9834970968189520E+00   2.6389210276562065E+00   2.1112170308691809E+01   3.9720721404641646E-01   2.8736153893279395E-02
Si   7.2464753555938755E-01   8.8014366650914919E+00   1.1299113373713936E+01  -1.1081680663397719E-01   1.8209849186625857E-02
Si   9.7343252690318405E+00   1.4889322739497037E+00   2.2708583630688128E+01  -1.0006260797301714E-02   6.5750880361577363E-02
Si   7.6923041015484364E+00   8.3325429614996640E+00   1.9418139960655136E+01  -2.7150717005462077E-01   3.1286197976232617E-02
Si   7.0684859047864492E+00   1.0507083489168052E+01   5.5888020071612541E+00  -1.0128427466995049E-01   6.6864050753687745E-02
Si   2.0317769134994172E+00   6.4941209069772325E+00   5.2850708656912522E+00  -2.0931979592343808E-01   1.2546772838772985E-01
Si   5.3510382576782813E+00   1.1151926166253308E+01   2.6665775490111523E+00  -1.3567499841305519E-01   2.7004382030699915E-02
Si   3.2039857999513863E+00   8.3151413701057315E+00   1.2265524490131236E+01  -4.0326875292863207E-01   3.5788331400535160E-02
Si   5.8308870882311599E+00   3.5192953920908479E+00   1.3512032340619449E+00   1.7517141250101709E-01   3.1313624674461853E-02
Si   6.0410158142073014E+00   3.5128288424901810E+00   1.9520414969873482E+01  -1.2095497894859619E-01   5.0441836927567631E-02
Si   9.8271934119837407E+00   1.0705531320037736E+01   1.0464903230116805E+01  -8.6635204108715058E-02   6.6492267920037082E-02
Si   1.6734840258520527E+00   1.3799771651647821E-01   3.4052056755176290E+00  -2.5110183884744686E-01   1.0172442296371988E-01
Si   7.4231096533372973E+00   1.0313342039494048E+01   1.4120405329027708E+01  -7.0927376781710016E-02   5.6661357161660535E-02
Si   9.2338759186468717E+00   8.2022899296326841E+00   8.8566366461659918E+00   9.7318777572519277E-02   8.9354213716087316E-02
Si   7.5895959713196604E+00   6.3843807163660058E+00   7.9144832088548389E+00  -6.3994301622877003E-02   3.2149084486980034E-02
Si   8.5796968175541277E+00   9.8571585130473238E+00   9.7640391298330158E+00  -1.5414197053536238E-01   1.0704227884634234E-03
Si   2.2212207160816262E+00   9.4184568382357003E+00   1.9131564642486875E+01  -1.6798737829845045E-01   1.9558258558747273E-02
Si   1.9481097652937207E+00   8.8467597338848165E+00   9.5984445895847177E+00   5.2366187010914889E-02   1.0212945026339179E-01
Si   2.0371063801664921E+00   9.6156886603284413E+00   1.4910916415431700E+01  -4.2551538826016966E-01   2.2417942817957676E-01
Si   8.1269237143900526E+00   8.3699714445121849E+00   3.8980722415244338E+00  -1.4904091209618286E-01   2.0023042746636504E-02
Si   8.8624843001838940E+00   1.0240413212296275E+01   1.7108853769311597E+01  -1.9128073207705576E-01   9.5658511634204815E-02
Si   1.1249308880117196E+01   1.5155535515392995E+00   1.5922943902918288E+01   6.3662355312044117E-02   2.1945021955934538E-03
Si   2.0308583210883939E+00   1.0850399350740050E+01   8.3707320203321576E+00  -2.7922165524389264E-01   1.7394094406652915E-02
Si   4.6706095112116657E+00   3.5565176917088359E+00   7.6365950210915363E+00  -2.2051921140148156E-01   1.7557688647086730E-01
Si   6.8668902196451098E+00   4.5743669559779923E+00   1.9214477774895492E+01  -3.7644965252729179E-01   8.4269705971042969E-02
Si   5.0639826781549457E+00   1.0798315890381536E+01   9.2319450199776121E+00   5.2145646765293652E-02   5.1348574482902150E-02
Si   6.6808319892310362E+00   1.1502080750973009E+00   6.1740723190178830E+00  -2.3533751241055612E-02   8.7775231226459808E-03
Si   3.6579066831326794E+00   3.1969183768202010E+00   2.5365376481843032E+00   3.7359479268653573E-02   4.9305622050851696E-03
Si   8.2785923306240612E+00   3.4969860380872912E+00   6.2509154515299832E+00   2.9372791671543252E-01   2.1729619587843984E-03
Si   3.2358135684394598E+00   8.8166200904631484E+00   1.0595389097011405E+00  -1.6799937685737376E-01   3.9242153241566581E-02
Si   4.8421725659463659E+00   3.7632451393861253E+00   2.2484889821448590E+01   5.2414868228420008E-02   1.6625272568593288E-01
Si   2.9422627961784178E+00   1.0778340435453766E+01   9.0024385847011645E-01  -9.1497857794255566E-02   3.9861031651638894E-02
Si   2.5544196366288404E-02   2.5689168467865335E+00   1.6930224245396236E+01   2.5095118747258471E-01   6.1394690528994170E-02
Si   6.8105827438974318E+00   5.0541236852827094E+00   5.5882105432002458E+00   1.3495956248070762E-03   9.3519795452383699E-03
Si   3.1593474651460257E-01   6.5735660092261554E+00   1.2488578269732677E+01  -5.7797800153720047E-02   7.8619395622360866E-02
Si   3.4525100184530744E+00   1.2872337428185636E+00   1.1246731185664251E+01  -5.0646141125486732E-01   3.7794799454533186E-02
Si   4.7689757335838090E+00   9.8703778739834451E+00   1.9923197701481580E+01   1.6999403381993128E-01   1.3114805406584037E-01
Si   5.5477371674518716E+00   4.3103176487992778E-01   1.6657551141335482E+01  -6.2354304561458740E-02   1.5452261647827989E-02
Si   5.2613158417685062E+00   8.8134090714462605E+00   5.6301504513551155E+00  -3.4890126790012133E-02   5.6403769873385655E-02
Si   3.5323920469924395E+00   4.0464066166127690E+00   2.0979170957572318E+01   2.5895759702832866E-02   1.6342653197696966E-01
Si   8.0231930692925850E+00   6.3619605231845071E+00   1.0126478490445406E+01  -2.2769206150988364E-01   8.0572361089871359E-03
Si   9.9350071070158830E-01   5.7044021669366556E+00   1.5561324497451656E+01   2.2007696698660517E-01   2.0695295911219883E-02
Si   3.3373334036690929E+00   7.4921168263724294E+00   1.7089495144527799E+01   1.4427829414318394E-01   6.8439208823787526E-02
Si   4.3393717391149844E-01   8.3383098947884946E+00   1.7965884822992386E+01   1.3202377352293659E-01   6.7904062347927716E-02
Si   6.9708752906954903E+00   5.0095873106293469E+00   1.2389956965271514E+01  -3.5425918810425649E-01   1.5093101060966972E-02
Si   4.1203961828807367E+00   6.9295360047116086E+00   7.0561287795435064E+00  -2.4410116095322199E-01   1.7952096867430848E-03
Si   6.8828841329158132E+00   1.1221660009592973E+01   1.0988165873816614E+01   9.9665001333338665E-02   1.3300484764665825E-02
Si   3.1335650596541074E+00   4.9261801087789161E+00   1.2725570707944323E+01   2.5881590948641175E-02   3.7723331647586573E-02
Si   7.6412712908274505E-01   4.4923854490012394E+00   1.9222545109203118E+01   1.3372803684903056E-01   1.5593535394004989E-02
Si   9.8724041096995681E+00   1.8312874394572218E+00   4.9011037444236747E+00  -1.6806610434300318E-02   5.8304472916233384E-02
Si   8.6071102620524957E+00   1.0061221073770583E+00   2.7904346312558395E+00  -7.2379069408201602E-03   4.4985576031814231E-02
Si   1.0347175529155178E+01   7.5799418613978551E+00   1.8694137390005071E+01  -2.8740051113355314E-02   6.7962096895453392E-02
Si   3.8075637467931571E+00   1.7802924204737782E+00   1.9984469751337791E+01   3.4386093740796486E-01   4.2025083318086368E-03
Si   9.7178759233021470E+00   1.6712638217014162E+00   2.0354015204081833E+01   2.5707484965011185E-01   1.6439636806718452E-01
Si   7.0492179975368074E-01   5.8521681166604758E+00   9.3863727263163121E-01  -1.2618304229054722E-01   2.6904459919176647E-02
Si   8.0724849441499860E+00   1.6153003392448197E+00   8.6473193281312977E+00   1.2723724825653182E-01   1.1514550826700487E-01
Si   9.0946841758800741E+00   5.0418032495624292E+00   2.0519641530835191E+00  -1.4496171350581477E-01   5.1517567284149406E-02
Si   2.8455083667584131E+00   1.0912696953950649E+01   2.1854997324816122E+01   1.4211074724641959E-01   1.1592767678754429E-01
Si   2.7668729000090906E+00   5.0371927629927393E+00   1.5645150533947710E+01   1.0531618390711994E-01   1.0396614914967528E-01
Si   1.0058732694519062E+01   1.1853563525519195E+00   1.7124128908392681E+01   2.3729118029392415E-01   3.4978014518500133E-02
Si   8.5557226571690741E+00   4.9557782656294069E+00   2.1374747342541589E+01   1.7093553378163229E-01   6.2229936834023558E-02
Si   5.6987632729334567E+00   3.6876682147321724E+00   1.3177560348153541E+01  -2.7678576093466223E-01   8.9114802213207625E-02
Si   5.0820570427686862E+00   5.1137450505033200E-01   2.0389028784584251E+01   3.9762452790383040E-01   9.8297357122848622E-02
Si   4.6102903110051563E-01   1.0345322788981301E+01   3.8507757763209511E+00  -2.3012671822255992E-01   1.8537030995735645E-01
Si   8.1947589572322848E+00   6.1970705794837073E+00   5.3213250580997240E+00   4.4598682928985500E-02   6.1765326772687243E-02
Si   1.1141576400324968E+01   5.6708636580222560E+00   1.5037432592729170E+01   8.2600104779073646E-04   1.2075423148490545E-01
Si   4.0973266279614418E+00   8.1758948653198047E+00   8.8142465485701056E+00  -1.2310883074920298E-01   1.6658383357037614E-02
Si   9.3284433672790161E+00   2.2480985720436144E+00   1.1680869796342344E+00  -2.4361840406658519E-01   1.9371116483316406E-01
Si   2.1176121000151937E+00   5.7562087793351582E+00   1.1591408260341129E+01   4.2016109464899198E-02   9.0949916466198835E-02
Si   1.1982808023546450E+00   3.0645579521748068E+00   1.3872634713354282E+00  -5.6532821900914243E-03   1.5491052006613468E-01
Si   6.7739789985858909E+00   1.6200449066105029E+00   1.9503082456067119E+01   9.8170866649207600E-02   4.6755073780483589E-02
Si   7.4286288172504999E+00   6.9988680668871091E+00   3.9869410289979976E+00  -5.5466984546298725E-02   5.2657405758059148E-04
Si   6.5756792483711619E+00   3.2144074240972951E+00   2.2629642534990356E+01   6.2578133201417252E-02   4.8008789293734248E-02
