144
Lattice="      10.5350999999999999       0.0000000000000000       0.0000000000000000       0.0000000000000000      10.3962000000000003       0.0000000000000000       0.0000000000000000       0.0000000000000000      14.0495999999999999" Properties=species:S:1:pos:R:3:charge:R:1:kinetic_energy:R:1
Cu   1.0535099999946862E+01   2.4404120133697108E-10   3.5122916312043988E-06  -6.4301848418679697E-04   1.0532684337200943E-02
Cu   1.7558499998713206E+00   1.7327000003298461E+00   3.5122368276091640E-06  -8.5381938785644707E-04   2.0085733823421292E-01
Cu   1.7558499999938220E+00   3.4398053037066182E-10   1.7562000002808111E+00   3.9767997250628184E-04   5.9627568119438312E-03
Cu   1.0535099999929745E+01   1.7326999998633357E+00   1.7561999999670099E+00  -2.3470000448888584E-04   3.4227702640306161E-02
Cu   2.6271609387831618E-10   1.0396199999962118E+01   3.5124035126176492E+00   2.8663239500126281E-04   3.1041284111653612E-02
Cu   1.7558500002741775E+00   1.7327000002068695E+00   3.5124035125763839E+00  -5.6368231695813620E-04   7.6906784637138306E-02
Cu   1.7558499998753239E+00   2.3243796106739238E-10   5.2685999998737492E+00  -2.8242272220779796E-04   8.0243996274666871E-02
Cu   3.1325625896398006E-10   1.7327000002913058E+00   5.2685999998964528E+00   5.6560941376204710E-04   1.0203651558797512E-01
Cu   1.0535099999894424E+01   2.6365876336465300E-10   7.0248035123877077E+00  -1.0363497734999783E-03   3.3723874548521646E-02
Cu   1.7558500002433914E+00   1.7326999999546846E+00   7.0248035123730954E+00   4.7792892352305216E-04   6.1741667639778994E-02
Cu   1.7558500002746675E+00   1.0396199999837711E+01   8.7810000002960340E+00   2.7255147806215518E-05   7.4606243064725020E-02
Cu   1.0535099999846819E+01   1.7327000003448614E+00   8.7810000001809563E+00  -6.3905086276960787E-05   6.3640304668448597E-02
Cu   2.3272014850895460E-10   2.4264984896649427E-10   1.0537203512614830E+01  -5.3704550760436121E-04   3.7544851905919580E-02
Cu   1.7558499998730095E+00   1.7326999999730941E+00   1.0537203512627640E+01   2.3554838425354774E-04   5.8454575981904761E-02
Cu   1.7558500002415272E+00   2.2386809795309203E-10   1.2293399999980419E+01  -2.0496679944592699E-04   3.8090348181345643E-02
Cu   3.5107934511811604E-10   1.7327000003465225E+00   1.2293400000239169E+01  -1.8652405964658669E-04   2.0751272557824021E-02
Cu   1.0535099999921851E+01   3.4654000002564458E+00   3.5122973073088150E-06   8.0921365150565805E-04   4.1964687549497358E-02
Cu   1.7558500003427260E+00   5.1980999998935129E+00   3.5123433849162733E-06  -5.8150347246765932E-05   1.3882611894434477E-01
Cu   1.7558500001780868E+00   3.4654000003087524E+00   1.7562000002334499E+00  -1.4001134278380789E-03   6.2863629205299379E-02
Cu   2.2744186880481327E-10   5.1981000002677309E+00   1.7562000003140497E+00   2.0019863915283764E-03   4.0376419230836784E-02
Cu   2.3281829403917953E-10   3.4653999999200904E+00   3.5124035123731296E+00  -6.5186401735140009E-04   1.0053781679232363E-01
Cu   1.7558500003375519E+00   5.1981000002834108E+00   3.5124035126759496E+00  -3.4122878734699214E-04   5.7635537493553067E-02
Cu   1.7558500001910873E+00   3.4653999998930427E+00   5.2686000002380906E+00  -8.1363393815436780E-04   5.7297207762331470E-03
Cu   1.0535099999837671E+01   5.1981000002136444E+00   5.2686000003465860E+00   7.3353658216745998E-04   8.8814001875359927E-02
Cu   1.0535099999959856E+01   3.4653999998421838E+00   7.0248035125952644E+00   6.8144122941227181E-04   1.0530716890965405E-01
Cu   1.7558499999010444E+00   5.1980999998913280E+00   7.0248035123681225E+00   8.0424445766169583E-05   1.3296467068723114E-01
Cu   1.7558499998503325E+00   3.4654000002002752E+00   8.7810000002666175E+00   1.4266542692453754E-04   1.6767879253360465E-01
Cu   1.0535099999960918E+01   5.1981000002128930E+00   8.7810000003294650E+00   1.2502473265385561E-04   3.7678466711877932E-02
Cu   2.1892297669437347E-10   3.4654000001894945E+00   1.0537203512657287E+01   1.7290376018408438E-04   1.3735340924251173E-02
Cu   1.7558500002982989E+00   5.1980999999457813E+00   1.0537203512263597E+01  -4.0967107312894768E-04   9.7983709365154395E-02
Cu   1.7558500002696207E+00   3.4654000003021608E+00   1.2293399999851189E+01  -6.9503151624772386E-04   5.6139760247926454E-02
Cu   1.0535099999981616E+01   5.1980999999236692E+00   1.2293399999986182E+01  -2.8229311357641507E-04   3.9689606526388699E-02
Cu   1.0535099999900751E+01   6.9308000002486665E+00   3.5123275278895233E-06  -3.6234429638071219E-04   7.8418761319407379E-02
Cu   1.7558500002528330E+00   8.6635000003202851E+00   3.5122339789205582E-06   8.2349328252462328E-04   4.3432992853911057E-02
Cu   1.7558500002473383E+00   6.9308000001996311E+00   1.7562000002653564E+00   2.6391598894477397E-03   5.0692375459687862E-02
Cu   1.0535099999971852E+01   8.6634999999616387E+00   1.7562000003311125E+00  -4.1342835356594776E-04   4.7792920846943948E-02
Cu   1.0535099999962648E+01   6.9307999999269052E+00   3.5124035123443509E+00   4.2985431599262824E-04   6.5267541251839187E-02
Cu   1.7558499999093944E+00   8.6635000002403100E+00   3.5124035125995956E+00   1.0174232373287850E-03   1.0223775353222391E-02
Cu   1.7558499998434618E+00   6.9308000002223720E+00   5.2686000002550539E+00  -4.0255862306892709E-04   1.8460260824340848E-02
Cu   2.0456038169415275E-10   8.6635000002762368E+00   5.2686000002016717E+00  -1.3636768221445550E-03   6.4660255949830908E-02
Cu   1.0535099999972186E+01   6.9308000002519812E+00   7.0248035127019453E+00  -4.3211126475206640E-04   1.4768422637189804E-01
Cu   1.7558500002426030E+00   8.6634999999122719E+00   7.0248035127135458E+00   1.2070350242332495E-04   1.0258791192137701E-01
Cu   1.7558500003052209E+00   6.9308000003417094E+00   8.7810000001776860E+00  -5.0831940936646447E-04   1.1594262864070869E-01
Cu   2.7689761966192931E-10   8.6635000002450067E+00   8.7810000003225905E+00   8.4023616387085553E-04   1.3085700367453967E-01
Cu   3.1788735512206046E-10   6.9308000001863066E+00   1.0537203512284719E+01   2.3113363565663292E-03   5.1963069730099107E-02
Cu   1.7558500003126900E+00   8.6634999999501474E+00   1.0537203512267402E+01   7.6340603875379998E-04   2.5863775476569418E-02
Cu   1.7558500003497512E+00   6.9308000003423826E+00   1.2293400000181865E+01  -6.8811738368346198E-04   7.4406675799841851E-02
Cu   1.0535099999985720E+01   8.6635000002251008E+00   1.2293399999877602E+01   9.1642707588945882E-04   4.3987368063811601E-02
Cu   3.5116999999382696E+00   1.0396199999869131E+01   3.5122728369861911E-06   1.6760012402983193E-03   1.2498936831171649E-02
Cu   5.2675500002371267E+00   1.7327000002539314E+00   3.5123136198442561E-06  -4.3513479627144136E-04   6.0561957442648674E-02
Cu   5.2675500002767075E+00   1.9399949007822937E-10   1.7562000002396405E+00   6.4686060486707220E-05   8.6531424359576448E-02
Cu   3.5117000002763787E+00   1.7327000002889721E+00   1.7561999998795439E+00  -5.0157335474487752E-04   9.6334388231288828E-02
Cu   3.5117000002227630E+00   1.0396199999911826E+01   3.5124035125800144E+00  -4.6323049256891125E-04   9.7354172426424839E-03
Cu   5.2675500002521627E+00   1.7327000002398272E+00   3.5124035125909785E+00  -3.4730132074756170E-04   3.1780368487116580E-02
Cu   5.2675499998467732E+00   1.0396199999929689E+01   5.2685999998622526E+00   1.0882763308472931E-04   1.3632161338647215E-02
Cu   3.5117000002212087E+00   1.7326999998831079E+00   5.2686000002128672E+00  -1.1075084975686877E-03   3.7240853543411500E-03
Cu   3.5116999999908458E+00   1.0396199999945114E+01   7.0248035122279724E+00   7.5612211517039896E-04   3.0652789927919574E-02
Cu   5.2675500001843831E+00   1.7326999999266375E+00   7.0248035123625785E+00  -7.8469211489640145E-04   9.7266504151373612E-02
Cu   5.2675499998506075E+00   1.0396199999862931E+01   8.7809999998630186E+00  -6.7475794658022892E-04   2.6955853123635205E-02
Cu   3.5117000002989012E+00   1.7326999999056407E+00   8.7809999998579613E+00  -3.2923161175091309E-04   1.1333578229794812E-01
Cu   3.5116999999344443E+00   3.0119232104025134E-10   1.0537203512357078E+01   5.4760897668337805E-04   2.4439913313114535E-02
Cu   5.2675500002821138E+00   1.7327000002148729E+00   1.0537203512279101E+01   7.3289981036062102E-04   4.6213141686154972E-02
Cu   5.2675499999301802E+00   3.1428302807164195E-10   1.2293400000347530E+01   7.4682719990448732E-04   1.5855530081429314E-03
Cu   3.5116999998578819E+00   1.7327000003227702E+00   1.2293400000319975E+01   1.0100670812818180E-04   2.1790381926459382E-02
Cu   3.5116999999807601E+00   3.4654000002184100E+00   3.5126796094213721E-06  -1.4818682287742746E-03   1.0043625409810944E-01
Cu   5.2675500003305205E+00   5.1981000002930484E+00   3.5127208403692624E-06  -9.0531189711029469E-04   4.4523393461735096E-02
Cu   5.2675500002805160E+00   3.4653999999912943E+00   1.7561999998454649E+00  -2.7542933674240544E-04   1.0569357520677190E-01
Cu   3.5117000002990100E+00   5.1980999998698207E+00   1.7561999999864240E+00  -7.0517224679633728E-04   1.4448873247055119E-01
Cu   3.5116999999258183E+00   3.4653999998310110E+00   3.5124035126660500E+00  -3.5545562865380020E-04   7.3139223305811962E-02
Cu   5.2675500003071720E+00   5.1980999999856801E+00   3.5124035126868915E+00   3.0266238001175338E-04   5.9113414446965849E-02
Cu   5.2675500002151336E+00   3.4653999999028420E+00   5.2686000002267646E+00  -1.1452222829966274E-04   2.6959578503269698E-02
Cu   3.5116999998489069E+00   5.1981000003199318E+00   5.2686000002935227E+00  -6.7849660678653834E-04   4.9497638154166794E-02
Cu   3.5117000002296885E+00   3.4653999999262033E+00   7.0248035126355779E+00  -7.4572280156637305E-04   1.1091551847562783E-01
Cu   5.2675500002616316E+00   5.1981000002693678E+00   7.0248035123555175E+00  -2.1196981237103785E-04   8.3958650999759521E-02
Cu   5.2675499999553432E+00   3.4653999998593292E+00   8.7809999998809953E+00   6.7711740136289222E-04   1.4539000336003816E-01
Cu   3.5116999998933776E+00   5.1980999999113120E+00   8.7810000002982473E+00   2.2299765280742179E-04   5.1445905653341922E-02
Cu   3.5116999999496157E+00   3.4653999998555349E+00   1.0537203512281296E+01  -1.3330168248639751E-03   1.7664801934413596E-02
Cu   5.2675500003173141E+00   5.1980999999845547E+00   1.0537203512652251E+01  -8.1002571401711521E-04   1.0689160200933873E-01
Cu   5.2675500002478541E+00   3.4653999999969334E+00   1.2293400000237975E+01  -1.0966873119180320E-03   5.4332210735570478E-02
Cu   3.5116999998998559E+00   5.1980999999907107E+00   1.2293399999862229E+01  -2.3112273098551128E-03   5.0018059253727563E-02
Cu   3.5117000002437080E+00   6.9307999998541350E+00   3.5122543317240169E-06  -8.1907726191765562E-04   1.4975539301876079E-01
Cu   5.2675499999240767E+00   8.6635000003225215E+00   3.5122949089653478E-06   3.2597720177918177E-04   3.4515203188037413E-02
Cu   5.2675500002697442E+00   6.9308000003402981E+00   1.7561999998806568E+00  -6.7960190708404866E-04   4.9482097708794151E-02
Cu   3.5116999999018210E+00   8.6634999999231042E+00   1.7561999998711564E+00   1.4801907513088963E-03   1.0115187964143282E-01
Cu   3.5116999999580125E+00   6.9307999998447860E+00   3.5124035125955477E+00   1.1893111437952797E-03   2.6032456054549048E-02
Cu   5.2675500001812576E+00   8.6635000002460192E+00   3.5124035127485178E+00  -2.8577667029239251E-04   4.0754301489008195E-02
Cu   5.2675499998680486E+00   6.9308000002209882E+00   5.2685999999888189E+00   1.2070606307990062E-03   3.3533589379144808E-02
Cu   3.5116999999754364E+00   8.6635000001900693E+00   5.2685999999535778E+00   7.0526342646815010E-04   8.2603511635824745E-02
Cu   3.5116999998816110E+00   6.9307999999863545E+00   7.0248035126118786E+00   1.2910637017604643E-04   1.9275188266462223E-01
Cu   5.2675500002024078E+00   8.6634999998789493E+00   7.0248035127459154E+00   3.0001510627286621E-04   3.7669149752428910E-02
Cu   5.2675499999060920E+00   6.9308000002855144E+00   8.7809999999636101E+00  -6.0872418092294822E-04   2.0076916555274776E-01
Cu   3.5117000002903160E+00   8.6634999999122062E+00   8.7810000003004234E+00   3.6308252916228412E-05   9.3446675892791944E-02
Cu   3.5117000003220618E+00   6.9307999999637655E+00   1.0537203512700865E+01  -3.8775847307093159E-04   9.1586825518670284E-02
Cu   5.2675500001883622E+00   8.6634999999237881E+00   1.0537203512274241E+01  -6.7263867034839109E-04   4.4809780789744603E-02
Cu   5.2675499998246504E+00   6.9308000003240213E+00   1.2293399999896156E+01   1.4541347801966253E-04   8.8631350547101209E-02
Cu   3.5117000002993239E+00   8.6634999998542721E+00   1.2293400000322681E+01   6.3365506390589132E-04   9.6240048901336597E-02
Cu   7.0233999999183432E+00   1.0396199999878077E+01   3.5126038450587946E-06  -4.9345396461220048E-04   7.9924008323055920E-02
Cu   8.7792500001831826E+00   1.7327000001740012E+00   3.5126881608771069E-06  -1.8794796130805480E-04   1.3793807334910349E-01
Cu   8.7792500003156704E+00   2.8977571823489611E-10   1.7561999999859357E+00  -6.1080141695590839E-04   3.6342742926762248E-02
Cu   7.0233999998679879E+00   1.7327000002432149E+00   1.7562000002013438E+00  -1.8015581406238823E-04   5.9831437421636310E-02
Cu   7.0233999998994276E+00   1.0396199999940285E+01   3.5124035126780844E+00  -4.8137353445198983E-04   7.3780033291162145E-02
Cu   8.7792499998360700E+00   1.7327000003181996E+00   3.5124035126259683E+00   1.7791031546643410E-04   4.1562205157558915E-03
Cu   8.7792499999040441E+00   1.9443221704114117E-10   5.2686000003399966E+00  -1.4692682409460645E-03   7.4696791289466630E-02
Cu   7.0233999998280945E+00   1.7326999999848982E+00   5.2685999998662014E+00   3.6045098192261094E-04   9.7789308801298949E-02
Cu   7.0234000001919101E+00   1.0396199999828790E+01   7.0248035126186918E+00   3.0587072499699275E-05   6.3257601263586191E-02
Cu   8.7792499999658631E+00   1.7327000001890953E+00   7.0248035123320749E+00   1.8067756765915988E-04   1.2065117708303949E-03
Cu   8.7792500002928566E+00   1.0396199999989229E+01   8.7810000002579578E+00   5.1424426921364841E-04   2.4069769282644617E-02
Cu   7.0233999999636225E+00   1.7327000002630282E+00   8.7809999999005264E+00   3.6419199915727063E-04   2.5134916139677266E-02
Cu   7.0234000002362045E+00   3.3913145045128275E-10   1.0537203512242636E+01   4.2174250418369752E-04   1.0795988623033086E-01
Cu   8.7792499999368054E+00   1.7326999999014432E+00   1.0537203512228151E+01  -8.6661341601512731E-05   2.5485743086385539E-02
Cu   8.7792499999979139E+00   1.8728638361539776E-10   1.2293400000286754E+01   2.3418465168845159E-04   2.8554690986118247E-02
Cu   7.0233999998730079E+00   1.7326999999785015E+00   1.2293400000258540E+01   4.8042858072960826E-04   2.7433984921221257E-02
Cu   7.0233999998802048E+00   3.4653999999827154E+00   3.5122782861140653E-06   4.3082886092804529E-04   3.9812442988349600E-02
Cu   8.7792500002756597E+00   5.1981000003085613E+00   3.5123278446369908E-06   1.2008524830644518E-03   4.8264234973779158E-02
Cu   8.7792500001979494E+00   3.4653999999134464E+00   1.7561999998708666E+00   1.8296354732072473E-04   3.3227044756181344E-02
Cu   7.0233999999794934E+00   5.1980999999049233E+00   1.7562000002504343E+00  -7.6850425479690898E-04   4.4338374471263278E-02
Cu   7.0234000001983459E+00   3.4654000002956780E+00   3.5124035126427167E+00   1.0607502670545443E-03   9.9018382290194454E-02
Cu   8.7792500003122829E+00   5.1980999999729303E+00   3.5124035122912454E+00   1.7058753200416277E-04   7.5983937439727270E-02
Cu   8.7792500002441223E+00   3.4653999998808520E+00   5.2686000002089131E+00   9.9872390550359569E-04   1.4054394703118003E-01
Cu   7.0233999998517023E+00   5.1980999999899860E+00   5.2685999998544908E+00   7.8987689325238364E-04   3.1858060755073907E-02
Cu   7.0234000003030159E+00   3.4654000003191481E+00   7.0248035126520341E+00   2.0372177676719616E-04   1.5487409332687121E-01
Cu   8.7792500002739065E+00   5.1980999998534072E+00   7.0248035126412338E+00   5.9695973765272470E-04   2.3456963369989387E-02
Cu   8.7792499998865576E+00   3.4654000002476519E+00   8.7810000001956752E+00   1.7041543043649909E-03   3.1729293669319571E-02
Cu   7.0234000002505041E+00   5.1981000003420421E+00   8.7809999998898629E+00   2.6607063154138189E-04   9.4606223348168497E-02
Cu   7.0233999998489693E+00   3.4654000002114755E+00   1.0537203512317767E+01  -2.2863887195789800E-04   8.1636201291255400E-02
Cu   8.7792499999215661E+00   5.1981000003310509E+00   1.0537203512365814E+01   1.5772349034754996E-03   3.1298622149115276E-03
Cu   8.7792499999887443E+00   3.4654000003445846E+00   1.2293399999910475E+01   5.7780825787290269E-04   3.1588054891103022E-02
Cu   7.0234000002792376E+00   5.1980999998942492E+00   1.2293399999907448E+01   2.2134104136384281E-04   7.7825482678211697E-02
Cu   7.0233999999788148E+00   6.9308000002386629E+00   3.5127109038763476E-06  -3.3644271144162019E-04   6.1797092678912334E-02
Cu   8.7792499999101352E+00   8.6635000002019886E+00   3.5123545358703225E-06  -1.1451780727291805E-03   1.1392743200395969E-01
Cu   8.7792499999068294E+00   6.9307999998914864E+00   1.7561999999708127E+00   7.0307362969757037E-05   4.3685508370287417E-02
Cu   7.0233999999215966E+00   8.6635000003029710E+00   1.7562000002775744E+00  -3.9575693085680541E-04   7.6460448001008888E-02
Cu   7.0234000002632904E+00   6.9308000001857861E+00   3.5124035125865611E+00  -6.3100349548683710E-04   2.9451280456377425E-02
Cu   8.7792499999989921E+00   8.6635000003381020E+00   3.5124035122501658E+00   1.8246188267312391E-04   1.2721476243150877E-02
Cu   8.7792499999882683E+00   6.9307999999576460E+00   5.2686000001871802E+00   3.6934651082631831E-04   2.2920664147035370E-02
Cu   7.0234000002983210E+00   8.6635000002528617E+00   5.2686000002931026E+00  -4.5506299925435201E-04   8.8750024357910143E-02
Cu   7.0233999999793042E+00   6.9307999998807182E+00   7.0248035122546000E+00  -3.4498271326022234E-04   9.6173452221283803E-02
Cu   8.7792499999017704E+00   8.6634999999828786E+00   7.0248035122286820E+00  -1.6039928241511348E-03   8.6139186103674367E-02
Cu   8.7792500003065843E+00   6.9308000001739050E+00   8.7809999998451502E+00  -3.3137616741996112E-04   1.0987366935918907E-01
Cu   7.0234000002352284E+00   8.6635000002389368E+00   8.7810000002700264E+00  -7.7562436343292518E-04   2.2485302214615765E-02
Cu   7.0234000001984471E+00   6.9307999999347958E+00   1.0537203512303659E+01   2.6342742392415630E-04   5.9594286200933017E-02
Cu   8.7792500002312917E+00   8.6635000002656515E+00   1.0537203512274258E+01  -2.8351946011717644E-04   3.1096186301204615E-02
Cu   8.7792500002457139E+00   6.9307999998675358E+00   1.2293400000249408E+01   8.4298030344420738E-04   7.6803212063225670E-03
Cu   7.0233999999994348E+00   8.6634999999799760E+00   1.2293400000220585E+01   1.9686928806450510E-04   6.3842746663348132E-02
