LAMMPS data file via write_data, version 15 May 2015, timestep = 1000

602 atoms
5 atom types
601 bonds
6 bond types
1120 angles
3 angle types
1511 dihedrals
15 dihedral types
680 impropers
2 improper types

0.0000000000000000e+00 1.8804700000000000e+01 xlo xhi
0.0000000000000000e+00 1.8804700000000000e+01 ylo yhi
0.0000000000000000e+00 1.8804700000000000e+01 zlo zhi

Masses

1 1.0079
2 12.011
3 12.011
4 15.9994
5 15.9994

Pair Coeffs # buck/coul/long

1 3407.79 0.258036 31.3692
2 88366.7 0.277775 583.018
3 88366.7 0.277775 583.018
4 55027.5 0.252511 268.546
5 55027.5 0.252511 268.546

Bond Coeffs # harmonic

1 350 1.09
2 350 1.53
3 350 1.43
4 700 1.22
5 350 1.32
6 350 1.42

Angle Coeffs # harmonic

1 50 109.471
2 50 120
3 50 104.51

Dihedral Coeffs # harmonic

1 0.111111 1 3
2 0.111111 1 3
3 0.111111 1 3
4 0.111111 1 3
5 0.111111 1 3
6 0.111111 1 3
7 0.083333 -1 6
8 0.166667 1 3
9 0.166667 -1 2
10 0.166667 -1 2
11 0.111111 1 3
12 0.111111 1 3
13 0.111111 1 3
14 0.083333 -1 6
15 0.166667 1 3

Improper Coeffs # harmonic

1 0 0
2 20 0

Atoms # full

218 1 2 -5.1389999999999998e-02 4.0295595494111076e+00 4.8742079285493816e+00 3.3715655152719641e+00 0 0 0
219 1 1 2.4709999999999999e-02 3.6071700368996811e+00 4.5108640261441426e+00 4.2772572723515419e+00 0 0 0
220 1 1 2.4709999999999999e-02 4.2096186248434053e+00 4.1252118724923559e+00 2.6286452418939135e+00 0 0 0
231 1 1 2.9790000000000001e-02 5.9233340217764026e+00 4.6233898997459297e+00 4.9535993779252401e+00 0 0 0
256 1 1 5.5329999999999997e-02 4.9855798622725853e+00 1.2414310046929820e+00 5.6229034987139448e+00 0 0 0
255 1 1 5.5329999999999997e-02 4.8719400770782890e+00 9.4987682787798766e-01 3.8329744857356447e+00 0 0 1
356 1 1 2.4709999999999999e-02 3.0087573093752886e+00 2.4321157848057906e+00 3.6382726350539785e-01 0 1 0
221 1 1 2.4709999999999999e-02 3.2066522328367775e+00 5.4394827479126375e+00 2.8838038104513499e+00 0 0 0
222 1 4 -2.6684999999999998e-01 5.3682112055156468e+00 5.5403045279066792e+00 1.2060384621886346e+00 0 0 0
254 1 2 4.2169999999999999e-02 5.6169977003607423e+00 1.0823633285261562e+00 4.6869163227903048e+00 0 0 0
257 1 1 5.5329999999999997e-02 6.2152596782247622e+00 1.3238466348541242e-01 4.8844316007478890e+00 0 0 0
213 1 2 5.3940000000000002e-02 5.1811571425601128e+00 5.9593046899481390e+00 3.5544193029414379e+00 0 0 0
355 1 1 2.4709999999999999e-02 4.4042199852587069e+00 1.2885526222739079e+00 1.4280848545127278e-01 0 1 0
357 1 4 -2.6684999999999998e-01 2.5584546593904545e+00 1.4526514503022181e-01 1.5864842499761438e+00 0 1 1
24 1 1 2.4709999999999999e-02 7.8436372812105015e-01 1.6092898760210732e+00 5.1382278461712199e+00 1 1 0
23 1 2 -5.1389999999999998e-02 8.4886729980274278e-01 2.0592068660417007e+00 6.1794567231825912e+00 1 1 0
209 1 2 4.2169999999999999e-02 1.1766470937760631e+00 5.5102297618619591e+00 5.4463920994004642e+00 0 0 0
212 1 1 5.5329999999999997e-02 2.6049438974066014e-01 5.1208943541325640e+00 4.9989951619350590e+00 0 0 0
211 1 1 5.5329999999999997e-02 1.8311099149855596e+00 4.6861418262950263e+00 5.7033516893711473e+00 0 0 0
344 1 2 4.2169999999999999e-02 7.7297347188034271e-01 4.3029528397614225e+00 1.1918369125901729e+00 0 0 0
345 1 1 5.5329999999999997e-02 8.1752839321482318e-01 3.6070906539513423e+00 2.0032059939433897e+00 0 0 0
346 1 1 5.5329999999999997e-02 3.9443911077365063e-01 5.1689287525269938e+00 1.6162248455360764e+00 0 0 0
343 1 5 -3.1156000000000000e-01 2.4057775452472441e-02 3.7981493100052872e+00 1.3079638273045066e-01 0 0 1
347 1 1 5.5329999999999997e-02 1.7428753393092085e+00 4.5201628859256147e+00 9.2137174933283772e-01 0 0 1
287 1 1 5.5329999999999997e-02 6.2937230168788654e+00 3.1978554503918470e+00 1.8432017256430561e-01 0 0 1
214 1 2 -2.4830000000000001e-02 6.3447317128057374e+00 5.1256158087486963e+00 4.1275879415407086e+00 0 0 0
230 1 1 2.9790000000000001e-02 6.5253525762949600e+00 4.3982497822694029e+00 3.3747873226432152e+00 0 0 0
229 1 2 -2.4830000000000001e-02 8.8407211179650638e+00 4.5673679788330519e+00 4.4353666223487904e+00 0 0 0
243 1 2 5.3940000000000002e-02 8.7973552155381345e+00 3.1035218623534293e+00 5.0521604963421387e+00 0 0 0
244 1 2 -2.4830000000000001e-02 9.4343811198970986e+00 2.1640824206904652e+00 3.9706560006594391e+00 0 0 0
245 1 1 2.9790000000000001e-02 9.7681623425155291e+00 5.0660002563421225e+00 4.8128996054327580e+00 0 0 0
246 1 1 2.9790000000000001e-02 8.9188472087476551e+00 4.4347028425213120e+00 3.3674277322404147e+00 0 0 0
247 1 3 2.5884000000000001e-01 7.4318236060325775e+00 2.5763622311155774e+00 5.3598160422853738e+00 0 0 0
253 1 5 -3.1156000000000000e-01 6.4970820726911755e+00 2.2258975484693870e+00 4.3924753532395036e+00 0 0 0
258 1 2 5.3940000000000002e-02 1.0884117871123296e+01 2.2688178040743074e+00 3.3594419018394670e+00 0 0 0
259 1 2 -2.4830000000000001e-02 1.0703444229269905e+01 2.1605823112181728e+00 1.7321583144933637e+00 0 0 0
260 1 1 2.9790000000000001e-02 8.8047493116057822e+00 2.2397424286405392e+00 3.1199257698040133e+00 0 0 0
261 1 1 2.9790000000000001e-02 9.2562358831367266e+00 1.1432678989309546e+00 4.2492197104224161e+00 0 0 0
262 1 3 2.5884000000000001e-01 1.1790848085920194e+01 1.2449637753091567e+00 3.8497317205122270e+00 0 0 0
263 1 2 -5.1389999999999998e-02 1.1668615018584614e+01 3.6287677071066171e+00 3.6114351142292227e+00 0 0 0
264 1 1 2.4709999999999999e-02 1.1162898093045861e+01 4.3840502754307709e+00 2.9917848126760971e+00 0 0 0
266 1 1 2.4709999999999999e-02 1.1824611055595282e+01 3.9904362249977190e+00 4.6258127485259966e+00 0 0 0
268 1 5 -3.1156000000000000e-01 1.1963237437644176e+01 1.0712718702420452e+00 5.1617270068463315e+00 0 0 0
273 1 2 5.3940000000000002e-02 1.0087760826546774e+01 9.1000797476119033e-01 9.2383501622847108e-01 0 0 0
276 1 1 2.9790000000000001e-02 1.0108819128434911e+01 2.9805961656323734e+00 1.4103852093122617e+00 0 0 0
228 1 2 5.3940000000000002e-02 7.7379691413385601e+00 5.6837280224337343e+00 4.5902132713241350e+00 0 0 0
277 1 3 2.5884000000000001e-01 8.7949961857798868e+00 1.1719472524059700e+00 3.4766700187358623e-01 0 0 0
267 1 4 -2.6684999999999998e-01 1.2529985999728805e+01 6.7532276036316474e-01 3.0062966729083809e+00 0 0 0
275 1 1 2.9790000000000001e-02 1.1725394203245209e+01 2.2946386902686355e+00 1.2928266297476234e+00 0 0 0
232 1 3 2.5884000000000001e-01 7.7399310368160368e+00 6.2654058032097053e+00 5.9871102124970363e+00 0 0 0
587 1 1 5.5329999999999997e-02 1.2154773640551136e+01 6.1597803993121634e+00 6.1257294883909603e+00 0 0 0
283 1 5 -3.1156000000000000e-01 7.9495088495093844e+00 2.0528198160242899e+00 7.9541004552967065e-01 0 0 1
291 1 1 2.9790000000000001e-02 1.2073511924808409e+01 2.6690391229253313e-01 4.3238555553027519e-01 0 1 0
265 1 1 2.4709999999999999e-02 1.2638639937164088e+01 3.5705234302509430e+00 3.1594007430603628e+00 0 0 0
327 1 4 -2.6684999999999998e-01 1.5708726779061449e+01 6.7459695416005605e-01 1.9415476348861576e+00 0 0 0
15 1 1 5.5329999999999997e-02 1.4686754585976557e+01 3.8457681352726660e+00 4.0371769988964941e+00 0 1 0
16 1 1 5.5329999999999997e-02 1.4124677438132112e+01 2.5448505716464678e+00 5.0246336072172513e+00 0 1 0
14 1 2 4.2169999999999999e-02 1.4893832317389441e+01 2.8547746504580744e+00 4.3200426396632263e+00 0 1 0
12 1 4 -2.6685999999999999e-01 1.7478237370968159e+01 1.3624526886936199e+00 3.9492245023470089e+00 0 0 0
17 1 1 5.5329999999999997e-02 1.4846627511017919e+01 2.3017661119399087e+00 3.4038973913917547e+00 0 1 0
336 1 1 2.9790000000000001e-02 1.8339794822106139e+01 1.1609226528985350e+00 5.9967495508922342e-01 -1 1 1
13 1 5 -3.1157000000000001e-01 1.6264198630025863e+01 2.8755444480488879e+00 4.8720696241334096e+00 0 1 0
7 1 3 2.5851000000000002e-01 1.6754987969018163e+01 1.6591938184789037e+00 4.9245692244667483e+00 0 0 0
3 1 2 5.0000000000000003e-02 1.6642952352844745e+01 7.5992401667752374e-01 6.0989266741353436e+00 0 0 0
325 1 1 2.4709999999999999e-02 1.6389388215536034e+01 2.7304184618360372e+00 1.1177505974777218e+00 -1 0 1
322 1 3 2.5884000000000001e-01 1.6064674029740818e+01 2.0759235328506784e-01 8.5803949540735358e-01 0 1 0
323 1 2 -5.1389999999999998e-02 1.6051633677534753e+01 2.5079887973561736e+00 6.9810062285741270e-02 0 0 1
326 1 1 2.4709999999999999e-02 1.5029886887961039e+01 2.9232320039810431e+00 1.8762779870929922e+01 0 0 0
215 1 1 2.9790000000000001e-02 4.7390362664730228e+00 6.6331535226902316e+00 5.5405977596361122e+00 0 0 0
217 1 3 2.5884000000000001e-01 5.5192339538357027e+00 6.3222264946489517e+00 2.1929836259075537e+00 0 0 0
169 1 2 -2.4830000000000001e-02 7.7989739409854986e-01 9.0514709198335286e+00 3.0153549905100863e+00 0 0 0
183 1 2 5.3940000000000002e-02 2.2427958338986658e+00 9.4667732063542012e+00 2.4591365460203138e+00 0 0 0
184 1 2 -2.4830000000000001e-02 3.3362249510813626e+00 8.5043967597498895e+00 2.9755966317381217e+00 0 0 0
185 1 1 2.9790000000000001e-02 7.6169430069250510e-01 7.9740184948379005e+00 3.1447230146761833e+00 0 0 0
186 1 1 2.9790000000000001e-02 7.0966752406980116e-01 9.4394011526373323e+00 4.0363252343530354e+00 0 0 0
187 1 3 2.5884000000000001e-01 2.5213763164653549e+00 1.0863953088766472e+01 2.6134963533989324e+00 0 0 0
188 1 2 -5.1389999999999998e-02 2.2542167134553233e+00 9.0937606024373832e+00 9.2688235699309729e-01 0 0 0
189 1 1 2.4709999999999999e-02 1.9341381484321194e+00 8.1130495768966622e+00 7.1332453557739439e-01 0 0 0
190 1 1 2.4709999999999999e-02 3.1750356244527267e+00 9.2388646475620799e+00 4.2350293611702006e-01 0 0 0
192 1 4 -2.6684999999999998e-01 2.5085971252311721e+00 1.1436875676871335e+01 3.7324166647237611e+00 0 0 0
193 1 5 -3.1156000000000000e-01 2.9220630166037185e+00 1.1615667965666933e+01 1.5936550984359370e+00 0 0 0
198 1 2 5.3940000000000002e-02 3.6112317853662073e+00 8.0996372847529070e+00 4.4477103045154847e+00 0 0 0
199 1 2 -2.4830000000000001e-02 4.8401132157176505e+00 7.1162891696146975e+00 4.5487931049706098e+00 0 0 0
200 1 1 2.9790000000000001e-02 4.2936108151313457e+00 8.8739203230630821e+00 2.6490881197118314e+00 0 0 0
201 1 1 2.9790000000000001e-02 3.0574420490259544e+00 7.5774745736237321e+00 2.5472529056069106e+00 0 0 0
202 1 3 2.5884000000000001e-01 2.4928013243206348e+00 7.4380936759200820e+00 5.0565070290973102e+00 0 0 0
203 1 2 -5.1389999999999998e-02 3.9346583036433658e+00 9.3699578094449816e+00 5.2542042030305884e+00 0 0 0
204 1 1 2.4709999999999999e-02 4.5877227905023235e+00 1.0110334377597223e+01 4.7471060317088885e+00 0 0 0
205 1 1 2.4709999999999999e-02 4.2885936970592118e+00 9.1893657935374051e+00 6.2529651405987154e+00 0 0 0
206 1 1 2.4709999999999999e-02 2.9808871062802718e+00 9.9107540781907701e+00 5.4253682382311759e+00 0 0 0
216 1 1 2.9790000000000001e-02 5.7540099816591788e+00 7.6722564038838277e+00 4.5775812546944605e+00 0 0 0
223 1 5 -3.1156000000000000e-01 5.8530516945234625e+00 7.5948350765825676e+00 1.9402176913559090e+00 0 0 0
208 1 5 -3.1156000000000000e-01 1.7868059866207864e+00 6.4455136747019095e+00 4.5413970341941372e+00 0 0 0
174 1 1 2.4709999999999999e-02 4.3235088086629708e-01 1.0965400362124136e+01 1.2624396615892568e+00 1 0 0
191 1 1 2.4709999999999999e-02 1.4177626045801619e+00 9.6243228557369331e+00 4.4692832341382061e-01 1 0 0
194 1 2 4.2169999999999999e-02 4.3536618895307146e+00 1.1683862730611899e+01 1.6278751574108261e+00 0 0 0
196 1 1 5.5329999999999997e-02 4.8564884611181922e+00 1.1642761162728943e+01 2.6045498842700252e+00 0 0 0
195 1 1 5.5329999999999997e-02 4.6630289712647022e+00 1.0861077489260033e+01 9.5147622595377390e-01 0 0 0
207 1 4 -2.6684999999999998e-01 2.0775473809209171e+00 7.9505984182472051e+00 6.0694881828520248e+00 0 0 0
234 1 1 2.4709999999999999e-02 8.3609271798797593e+00 6.4679463872614429e+00 2.5177998092905729e+00 0 0 1
236 1 1 2.4709999999999999e-02 7.6772864301642132e+00 7.7180968182000900e+00 3.5855619794545852e+00 0 0 0
233 1 2 -5.1389999999999998e-02 8.3131038267498081e+00 6.7989145548650916e+00 3.5677586032626536e+00 0 0 0
235 1 1 2.4709999999999999e-02 9.2790260499175883e+00 7.0976695022197891e+00 3.8172956490776637e+00 0 0 0
132 1 4 -2.6684999999999998e-01 1.0805546825401699e+01 8.0992232119717329e+00 1.1223021689699675e+00 0 0 0
133 1 5 -3.1156000000000000e-01 9.7632488907141646e+00 1.0036468674391378e+01 8.8995105101062477e-01 0 0 0
127 1 3 2.5884000000000001e-01 1.0857547050094174e+01 9.2899950044121926e+00 1.3133250496038746e+00 0 0 0
123 1 2 5.3940000000000002e-02 1.1898057143210432e+01 9.6711975429604617e+00 2.2432894534166778e+00 0 0 0
128 1 2 -5.1389999999999998e-02 1.1812393080653067e+01 8.9047448328069958e+00 3.5655124904385751e+00 0 0 0
130 1 1 2.4709999999999999e-02 1.2083606787273109e+01 7.8688102988985165e+00 3.4603059272885175e+00 0 0 0
114 1 1 2.4709999999999999e-02 9.1687084990370149e+00 1.0390282900828163e+01 3.5348936529255530e+00 0 0 0
131 1 1 2.4709999999999999e-02 1.0859731290789819e+01 8.9730764130239873e+00 4.0735821081211343e+00 0 0 0
109 1 2 -2.4830000000000001e-02 1.1884172733998058e+01 1.1242690437843226e+01 2.5571431611093991e+00 0 0 0
115 1 1 2.4709999999999999e-02 9.1061811813104860e+00 1.1640526215985112e+01 2.1649378299283222e+00 0 0 0
126 1 1 2.9790000000000001e-02 1.1762540029065754e+01 1.1701082651152875e+01 1.5519702334642418e+00 0 0 0
113 1 2 -5.1389999999999998e-02 9.3464903042728871e+00 1.1447760388565438e+01 3.2299347526935427e+00 0 0 0
116 1 1 2.4709999999999999e-02 8.6442222730904383e+00 1.2075430671137077e+01 3.7820043944107589e+00 0 0 0
94 1 2 -2.4830000000000001e-02 1.1107144819851230e+01 1.1865010158726054e+01 5.0698063353687326e+00 0 0 0
108 1 2 5.3940000000000002e-02 1.0809521762758550e+01 1.1995465988965591e+01 3.4839236372675844e+00 0 0 0
110 1 1 2.9790000000000001e-02 1.1083270675459472e+01 1.0813808892983319e+01 5.2199540473986170e+00 0 0 0
111 1 1 2.9790000000000001e-02 1.2183897044526804e+01 1.2032823380606425e+01 5.1387359755296584e+00 0 0 0
106 1 1 5.5329999999999997e-02 6.5827491322969314e+00 1.0353226317443221e+01 6.1358153022141702e+00 0 0 0
103 1 5 -3.1156000000000000e-01 8.5520464110489272e+00 1.1062672848728770e+01 6.1901152023002490e+00 0 0 0
226 1 1 5.5329999999999997e-02 6.7393487962573415e+00 8.9973757821271452e+00 6.9803928552947403e-01 0 0 1
224 1 2 4.2169999999999999e-02 6.3756792075328850e+00 7.9601425928827094e+00 6.5820390367154635e-01 0 0 1
225 1 1 5.5329999999999997e-02 7.2587835143822472e+00 7.2891404279761636e+00 3.6670780623282168e-01 0 0 1
180 1 1 5.5329999999999997e-02 1.8103765674055335e+01 8.9312843601713130e+00 5.9407597645624426e+00 0 0 0
179 1 2 4.2169999999999999e-02 1.7225195816406202e+01 8.4008639378088041e+00 5.6279610126022410e+00 0 0 0
160 1 1 2.4709999999999999e-02 1.6438709054787825e+01 6.4126847617664922e+00 2.1004936225383593e+00 0 0 0
129 1 1 2.4709999999999999e-02 1.2602604850841264e+01 9.3134634377196921e+00 4.1916553631269169e+00 0 0 0
178 1 5 -3.1156000000000000e-01 1.7156422595221834e+01 8.2627864894166319e+00 4.1816629498910887e+00 0 0 0
175 1 1 2.4709999999999999e-02 1.8558091260292745e+01 1.1535363461075105e+01 2.8067872130668898e+00 -1 0 0
173 1 2 -5.1389999999999998e-02 1.8356012188673027e+01 1.0967580225907279e+01 1.9203206215428936e+00 0 0 0
168 1 2 5.3940000000000002e-02 1.8229463142177980e+01 9.4740310718526821e+00 2.3561218728932913e+00 0 0 0
124 1 2 -2.4830000000000001e-02 1.3299419420967933e+01 9.2201850736364186e+00 1.6594257176983653e+00 0 0 0
138 1 2 5.3940000000000002e-02 1.3967371365682158e+01 9.5310346284746323e+00 2.6979811169816253e-01 0 0 0
139 1 2 -2.4830000000000001e-02 1.5600946727584983e+01 9.4306623974891792e+00 4.2272201541655113e-01 0 0 0
140 1 1 2.9790000000000001e-02 1.3383924958279072e+01 8.1293084507161506e+00 1.7765362194519521e+00 0 0 0
153 1 2 5.3940000000000002e-02 1.6402057375681519e+01 8.0981008723474890e+00 6.9628896128812312e-01 0 0 0
154 1 2 -2.4830000000000001e-02 1.7849392410880998e+01 8.4918495827017502e+00 1.1521430349495145e+00 0 0 0
155 1 1 2.9790000000000001e-02 1.5800741653623986e+01 1.0111268521493590e+01 1.2342898762352619e+00 0 0 0
158 1 2 -5.1389999999999998e-02 1.5717693553009648e+01 7.2112740161496625e+00 1.7540291321024386e+00 0 0 0
159 1 1 2.4709999999999999e-02 1.5493182806092936e+01 7.7460097998104001e+00 2.6913165361636500e+00 0 0 0
161 1 1 2.4709999999999999e-02 1.4792349441883843e+01 6.7315066517682673e+00 1.4052000229598915e+00 0 0 0
170 1 1 2.9790000000000001e-02 1.8304741408276627e+01 8.9290509768490214e+00 2.1541078798167390e-01 0 0 0
171 1 1 2.9790000000000001e-02 1.8299155064356995e+01 7.4357127033867503e+00 1.3572401972684183e+00 0 0 0
172 1 3 2.5884000000000001e-01 1.7264984992005285e+01 9.3551988614830162e+00 3.4810947914338368e+00 0 0 0
176 1 1 2.4709999999999999e-02 1.7413976867006511e+01 1.1263984166419087e+01 1.5130507768247203e+00 0 0 0
141 1 1 2.9790000000000001e-02 1.4034248221445138e+01 9.5386103384357863e+00 2.4205737157178229e+00 0 0 0
177 1 4 -2.6684999999999998e-01 1.6407335523356114e+01 1.0247450527459590e+01 3.5928639304754619e+00 0 0 0
125 1 1 2.9790000000000001e-02 1.2865428396168182e+01 1.1590550666496775e+01 2.9336097766751661e+00 0 0 0
181 1 1 5.5329999999999997e-02 1.7330799948182413e+01 7.4279079254500244e+00 6.0676751130174127e+00 0 0 0
182 1 1 5.5329999999999997e-02 1.6313755277858672e+01 8.9346804237323543e+00 6.0030792631789192e+00 0 0 0
148 1 5 -3.1156000000000000e-01 1.4159424851562527e+01 1.1888562252244766e+01 6.6644002594784957e-01 0 0 0
74 1 2 4.2169999999999999e-02 4.2346071018555973e+00 1.6517585818154007e+01 4.0524239253397090e+00 0 0 0
75 1 1 5.5329999999999997e-02 4.1828832322169296e+00 1.7603931682991970e+01 4.0819198048166889e+00 0 0 0
76 1 1 5.5329999999999997e-02 3.2227403049082772e+00 1.6135893879588384e+01 4.3027787847226993e+00 0 0 0
352 1 3 2.5884000000000001e-01 2.1136368794071827e+00 1.8718556738347328e+01 4.7912505164278668e-01 0 0 1
358 1 5 -3.1156000000000000e-01 9.8972334803549233e-01 1.7934455115892707e+01 4.5933426965092045e-01 0 0 1
43 1 5 -3.1156000000000000e-01 6.4570998626887521e-01 1.6199204414156878e+01 6.0719381141665636e+00 0 0 0
72 1 4 -2.6684999999999998e-01 4.5025177382841388e+00 1.4085909079347648e+01 5.1579837119722765e+00 0 0 0
77 1 1 5.5329999999999997e-02 4.4780881192003177e+00 1.6134122854099221e+01 3.0421871310804804e+00 0 0 0
44 1 2 4.2169999999999999e-02 1.0568516393273262e+00 1.4829539926844939e+01 5.7119451094719293e+00 0 0 0
73 1 5 -3.1156000000000000e-01 5.2861023985262729e+00 1.6056101336367220e+01 4.9679834508953746e+00 0 0 0
67 1 3 2.5884000000000001e-01 5.1036644082503750e+00 1.4975949966780735e+01 5.6707080585374721e+00 0 0 0
45 1 1 5.5329999999999997e-02 2.0999496016200063e+00 1.4781316203203438e+01 5.6695798610061940e+00 0 0 0
197 1 1 5.5329999999999997e-02 4.5655926407980933e+00 1.2583978823353510e+01 1.1610274184148404e+00 0 0 0
362 1 1 5.5329999999999997e-02 1.1632052277192659e+00 1.7133713089274853e+01 2.3894053015868955e+00 0 0 1
46 1 1 5.5329999999999997e-02 7.5725658321582034e-01 1.4516967548481029e+01 4.6849014620126610e+00 0 -1 0
36 1 1 2.9790000000000001e-02 2.0322060552770784e+00 1.8559937228817383e+01 6.0637488278648561e+00 0 0 0
359 1 2 4.2169999999999999e-02 1.1021475436564983e+00 1.6815250590472250e+01 1.3694249091315172e+00 0 0 1
360 1 1 5.5329999999999997e-02 2.0044525701225315e+00 1.6230266443574674e+01 1.1509532220994061e+00 1 0 1
361 1 1 5.5329999999999997e-02 3.2568077824487224e-01 1.6085458642775137e+01 1.2188930161552944e+00 1 0 1
269 1 2 4.2169999999999999e-02 1.1830389910250741e+01 1.8564485487138818e+01 5.6290441634750961e+00 0 -1 0
272 1 1 5.5329999999999997e-02 1.0720424046166745e+01 1.8369564957074235e+01 5.5703413150671750e+00 0 -1 0
271 1 1 5.5329999999999997e-02 1.2437467802918851e+01 1.7742295687694281e+01 5.1270420477131289e+00 0 -1 0
281 1 1 2.4709999999999999e-02 9.0233495760238185e+00 1.8655171612482068e+01 2.5034382762303298e+00 0 -1 0
278 1 2 -5.1389999999999998e-02 9.8578429141264259e+00 1.8438668434681748e+01 1.8191940947423297e+00 0 -1 0
86 1 1 2.4709999999999999e-02 7.6421674181990706e+00 1.6714773305047022e+01 5.5957345097539282e+00 0 0 0
117 1 4 -2.6684999999999998e-01 1.0068610781345065e+01 1.4071708592886122e+01 2.6565887836923006e+00 0 0 0
79 1 2 -2.4830000000000001e-02 9.5902017210737700e+00 1.3982227549552386e+01 5.5575431578240932e+00 0 0 0
83 1 2 -5.1389999999999998e-02 8.3500712347773529e+00 1.6003405760148386e+01 5.1848742775360943e+00 0 0 0
85 1 1 2.4709999999999999e-02 9.2540293749916014e+00 1.6534403397835412e+01 4.8362520198056060e+00 0 0 0
95 1 1 2.9790000000000001e-02 1.0446631896146398e+01 1.4573469446199210e+01 5.2970861274418350e+00 0 0 0
96 1 1 2.9790000000000001e-02 9.1416095243192235e+00 1.3699608276083666e+01 4.5843478617021507e+00 0 0 0
112 1 3 2.5884000000000001e-01 1.1039042746682174e+01 1.3378475569902163e+01 3.0348214582733646e+00 0 0 0
280 1 1 2.4709999999999999e-02 9.6672640542508290e+00 1.7519166911103913e+01 1.2764759575403926e+00 0 0 0
84 1 1 2.4709999999999999e-02 7.7838675625916585e+00 1.5539329384933213e+01 4.3126149189364327e+00 0 0 0
80 1 1 2.9790000000000001e-02 7.0963315928117501e+00 1.3466662919460296e+01 5.8843666321211598e+00 0 0 0
118 1 5 -3.1156000000000000e-01 1.2205602279617944e+01 1.3993171889103468e+01 3.2516377099689207e+00 0 0 0
420 1 1 5.5329999999999997e-02 9.3687827580087149e+00 1.3716384931281793e+01 7.1929643250340944e-02 0 0 1
279 1 1 2.4709999999999999e-02 1.0766670266106322e+01 1.8210534982167221e+01 2.3834589268357975e+00 0 -1 0
120 1 1 5.5329999999999997e-02 1.2034988159882491e+01 1.5789988999554220e+01 2.2641080519981753e+00 0 0 0
93 1 2 5.3940000000000002e-02 1.0350571327502609e+01 1.2725781223708253e+01 6.1618084613766717e+00 0 0 0
331 1 1 5.5329999999999997e-02 1.5664908425298385e+01 1.6858493605396433e+01 2.5641868100536338e+00 0 0 0
332 1 1 5.5329999999999997e-02 1.7300487247331514e+01 1.7634312688581865e+01 2.5995070785108862e+00 0 0 0
329 1 2 4.2169999999999999e-02 1.6660885112701678e+01 1.7012901869050719e+01 2.0239273017550050e+00 0 0 0
328 1 5 -3.1156000000000000e-01 1.6416282284509847e+01 1.7721559462286685e+01 7.8766514860833414e-01 0 0 0
330 1 1 5.5329999999999997e-02 1.7144458132850652e+01 1.6088834217668083e+01 1.8556557988591582e+00 0 0 0
119 1 2 4.2169999999999999e-02 1.2694288044356295e+01 1.4894684320259207e+01 2.2523325908812222e+00 0 0 0
149 1 2 4.2169999999999999e-02 1.4958795953386717e+01 1.2859291895070799e+01 1.8804394413189804e+01 0 0 -1
150 1 1 5.5329999999999997e-02 1.5474514544515127e+01 1.3513477008059622e+01 7.3836480173730501e-01 0 0 0
122 1 1 5.5329999999999997e-02 1.3719081278123660e+01 1.5118647224122142e+01 2.5765497577034502e+00 0 0 0
121 1 1 5.5329999999999997e-02 1.2595981919397351e+01 1.4435023235868581e+01 1.2813200177025368e+00 0 0 0
20 1 1 2.9780000000000001e-02 1.8433315670050806e+01 1.8490996811605541e+01 5.7226429291147918e+00 -1 -1 0
11 1 1 2.4690000000000000e-02 1.4687537875143489e+01 4.8318644987627835e-02 5.5485651057169587e+00 0 0 0
8 1 2 -5.1709999999999999e-02 1.5711061480577049e+01 1.8474379598338810e+01 5.5570238582968514e+00 0 -1 0
10 1 1 2.4690000000000000e-02 1.5959988749722486e+01 1.8207451523471022e+01 4.5264152524196426e+00 -1 -1 0
9 1 1 2.4690000000000000e-02 1.5808841294311554e+01 1.7494578447318986e+01 6.0699482115131351e+00 -1 -1 0
309 1 1 2.4709999999999999e-02 1.3877118569893231e+01 1.7943324089739985e+01 1.6018732917042683e-01 0 0 1
241 1 1 5.5329999999999997e-02 6.1607723559948031e+00 5.9023558103985092e+00 8.7994808998775405e+00 0 0 0
25 1 1 2.4709999999999999e-02 1.9110121253152459e+00 2.4236051630591056e+00 6.3925347580614735e+00 1 1 0
35 1 1 2.9790000000000001e-02 2.5722335255923570e+00 4.8269384733140203e-01 7.5401530619245349e+00 0 1 0
27 1 4 -2.6684999999999998e-01 1.1856576732722617e+00 2.1395893745554027e+00 9.1009752726396371e+00 1 0 0
514 1 2 -2.4830000000000001e-02 5.5690032563889948e+00 5.8540672050321021e+00 1.2465166704503023e+01 0 0 0
522 1 4 -2.6684999999999998e-01 2.4053777046776981e+00 5.1719951456744653e+00 1.1629106862680610e+01 0 0 0
524 1 2 4.2169999999999999e-02 2.8549709857400276e+00 5.5968607763747329e+00 8.9381208230444731e+00 0 0 0
525 1 1 5.5329999999999997e-02 3.1994640232706186e+00 4.6817437755484956e+00 8.5166948953900565e+00 0 0 0
527 1 1 5.5329999999999997e-02 1.8435359006537984e+00 5.5074025357971719e+00 9.2963425108388940e+00 0 0 0
531 1 1 2.9790000000000001e-02 5.3153477914471257e+00 4.8095326525637088e+00 1.2434383140258996e+01 0 0 0
517 1 3 2.5884000000000001e-01 3.3603654403365155e+00 5.8864646351224330e+00 1.1318293024498308e+01 0 0 0
523 1 5 -3.1156000000000000e-01 3.7529092101508428e+00 5.9565344467001431e+00 1.0050267380801010e+01 0 0 0
530 1 1 2.9790000000000001e-02 6.0405920827429060e+00 6.0064302942986529e+00 1.1512053638633066e+01 0 0 0
210 1 1 5.5329999999999997e-02 7.5385628642531699e-01 5.9459717741612570e+00 6.3926124407661531e+00 0 0 0
18 1 2 5.3929999999999999e-02 4.9920384683410607e-01 9.2638058026753456e-01 7.1899847202700453e+00 0 0 0
22 1 3 2.5884000000000001e-01 2.6228989928274798e-01 1.5231864330726443e+00 8.5733540000731931e+00 1 0 0
26 1 1 2.4709999999999999e-02 1.9801704111181720e-01 2.9483847600794495e+00 6.3396606018994213e+00 1 1 0
56 1 1 2.4709999999999999e-02 4.3458827670757767e+00 7.8780743074985962e-02 9.0035039131561270e+00 0 0 0
30 1 1 5.5329999999999997e-02 1.4368850651039441e-01 1.1280639327658046e+00 1.1176695693328190e+01 0 0 0
252 1 4 -2.6684999999999998e-01 7.0071907987752251e+00 2.6482874057120700e+00 6.5073016373457220e+00 0 0 0
248 1 2 -5.1389999999999998e-02 9.4988000382630986e+00 3.1601996025660801e+00 6.4537185359372700e+00 0 0 0
249 1 1 2.4709999999999999e-02 1.0592348485889108e+01 3.3459806066177729e+00 6.3940173716911248e+00 0 0 0
250 1 1 2.4709999999999999e-02 9.3074163706704720e+00 2.2114217205262734e+00 6.8958150522978334e+00 0 0 0
251 1 1 2.4709999999999999e-02 9.1488420984534713e+00 4.0122113043782930e+00 7.0580926356026232e+00 0 0 0
238 1 5 -3.1156000000000000e-01 6.7959786901533894e+00 5.6980920127841506e+00 6.7878475759538279e+00 0 0 0
552 1 4 -2.6684999999999998e-01 6.9157153849722421e+00 2.5095696490533341e+00 1.2400514963024804e+01 0 0 0
556 1 1 5.5329999999999997e-02 6.3131787969635527e+00 3.0504209621491483e+00 9.1002661093887607e+00 0 0 0
555 1 1 5.5329999999999997e-02 8.0480209485408238e+00 2.9211981635015754e+00 9.0600792303446838e+00 0 0 0
554 1 2 4.2169999999999999e-02 7.2279027968645035e+00 2.8459691104597451e+00 9.7375320376716097e+00 0 0 0
547 1 3 2.5884000000000001e-01 7.5411564401879785e+00 3.4677060440213521e+00 1.1975283725536391e+01 0 0 0
553 1 5 -3.1156000000000000e-01 7.3355627401907642e+00 3.8876060868734426e+00 1.0712294071273924e+01 0 0 0
557 1 1 5.5329999999999997e-02 7.1532919304534675e+00 1.8084386916906201e+00 1.0093618866427253e+01 0 0 0
544 1 2 -2.4830000000000001e-02 9.9902448812950251e+00 4.0347989243882543e+00 1.2002205326261780e+01 0 0 0
558 1 2 5.3940000000000002e-02 1.0678976594420632e+01 5.3260637770738946e+00 1.1333594596370258e+01 0 0 0
559 1 2 -2.4840000000000001e-02 1.2167487259285968e+01 5.0100866362892456e+00 1.0778365953855156e+01 0 0 0
560 1 1 2.9790000000000001e-02 9.9103436819059105e+00 3.2466097436027184e+00 1.1339099510571629e+01 0 0 0
563 1 2 -5.1389999999999998e-02 9.7907726190708626e+00 5.8201466734787104e+00 1.0168000409554859e+01 0 0 0
564 1 1 2.4709999999999999e-02 9.6413086550078404e+00 4.8752718555895180e+00 9.5850299554224083e+00 0 0 0
578 1 2 -5.1409999999999997e-02 1.1930799889375592e+01 2.6407158224862903e+00 9.7832289712850216e+00 0 0 0
579 1 1 2.4709999999999999e-02 1.1919405537827767e+01 2.1789895116270350e+00 1.0759784371301240e+01 0 0 0
581 1 1 2.4709999999999999e-02 1.0905740949636973e+01 2.7723443269268051e+00 9.5570584096952000e+00 0 0 0
546 1 1 2.9790000000000001e-02 8.3392118083554791e+00 6.2750854409822168e+00 1.2491618877017970e+01 0 0 0
566 1 1 2.4709999999999999e-02 8.8041600100112394e+00 6.1390639306555874e+00 1.0526408998119324e+01 0 0 0
580 1 1 2.4709999999999999e-02 1.2430984313225887e+01 1.9362250296702648e+00 9.1387162426294459e+00 0 0 0
583 1 5 -3.1156000000000000e-01 1.1754536653835363e+01 5.1977554776426995e+00 7.8713304118435232e+00 0 0 0
577 1 3 2.5883000000000000e-01 1.2674111648991550e+01 4.4401878998496800e+00 8.3828488027619361e+00 0 0 0
582 1 4 -2.6684999999999998e-01 1.3477166582502942e+01 3.9451319187909535e+00 7.5788034156170383e+00 0 0 0
573 1 2 5.3659999999999999e-02 1.2701447158314107e+01 3.9311157569794197e+00 9.7344574667966217e+00 0 0 0
575 1 1 2.9790000000000001e-02 1.2658508829894590e+01 4.6798273877072871e+00 1.1680758846333749e+01 0 0 0
576 1 1 2.9790000000000001e-02 1.2594667176270791e+01 5.9678433685449725e+00 1.0487351734626092e+01 0 0 0
5 1 1 2.4690000000000000e-02 1.5745639537627058e+01 7.1190652152886169e-01 8.1173085259413025e+00 0 0 0
6 1 1 2.4690000000000000e-02 1.6307353771858352e+01 2.4127675520556888e+00 7.5001782569719229e+00 0 0 0
2 1 2 -5.1709999999999999e-02 1.5858044524328022e+01 1.4586452016529758e+00 7.2470833912294319e+00 0 0 0
591 1 1 2.9470000000000000e-02 1.4100521366001157e+01 3.0291470356502086e+00 1.1231287034606639e+01 0 0 0
574 1 2 -2.7850000000000000e-02 1.4157857546479631e+01 3.5553300418328653e+00 1.0246510857974354e+01 0 0 0
590 1 1 2.9470000000000000e-02 1.4598457464335102e+01 2.8793186902163739e+00 9.5383145917308632e+00 0 0 0
1 1 1 2.4690000000000000e-02 1.4827491235932333e+01 1.6612666748521916e+00 6.9081661317668326e+00 0 0 0
588 1 2 4.0950000000000000e-02 1.5379860535331742e+01 4.4834101306607108e+00 1.0328917284979571e+01 0 0 0
589 1 1 4.2240000000000000e-02 1.6202461908043329e+01 3.8492630032967194e+00 1.0128134984865135e+01 0 0 0
592 1 3 2.5561000000000000e-01 1.5609348068688339e+01 5.0820951964281251e+00 1.1702853777296660e+01 0 0 0
29 1 2 4.2169999999999999e-02 1.8041230219401857e+01 8.8063569086945037e-01 1.0593040336553873e+01 0 0 0
28 1 5 -3.1156000000000000e-01 1.7920897894920156e+01 1.5229556483649089e+00 9.2513060790918633e+00 -1 0 0
594 1 1 2.4389999999999998e-02 1.5583066358582457e+01 5.2143857143264221e+00 8.2502744549960205e+00 0 0 0