LAMMPS data file via write_data, version 15 May 2015, timestep = 1000

244 atoms
5 atom types
242 bonds
6 bond types
448 angles
3 angle types
590 dihedrals
15 dihedral types
272 impropers
2 improper types

0.0000000000000000e+00 1.3855399999999999e+01 xlo xhi
0.0000000000000000e+00 1.3855399999999999e+01 ylo yhi
0.0000000000000000e+00 1.3855399999999999e+01 zlo zhi

Masses

1 1.0079
2 12.011
3 12.011
4 15.9994
5 15.9994

Pair Coeffs # buck/coul/long

1 3407.79 0.258036 31.3692
2 88366.7 0.277775 583.018
3 88366.7 0.277775 583.018
4 55027.5 0.252511 268.546
5 55027.5 0.252511 268.546

Bond Coeffs # harmonic

1 350 1.09
2 350 1.53
3 350 1.43
4 700 1.22
5 350 1.32
6 350 1.42

Angle Coeffs # harmonic

1 50 109.471
2 50 120
3 50 104.51

Dihedral Coeffs # harmonic

1 0.111111 1 3
2 0.111111 1 3
3 0.111111 1 3
4 0.111111 1 3
5 0.111111 1 3
6 0.111111 1 3
7 0.083333 -1 6
8 0.166667 1 3
9 0.166667 -1 2
10 0.166667 -1 2
11 0.111111 1 3
12 0.111111 1 3
13 0.111111 1 3
14 0.083333 -1 6
15 0.166667 1 3

Improper Coeffs # harmonic

1 0 0
2 20 0

Atoms # full

109 1 1 4.2240000000000000e-02 2.8765347062837430e+00 6.5924147013888943e+00 3.0492245416105259e+00 0 0 0
147 2 1 2.4709999999999999e-02 6.4000211043953581e-01 2.2189644729922624e+00 3.0923668200958154e+00 1 0 0
145 2 2 -5.1389999999999998e-02 1.2581439387612632e+00 1.7400642810240949e+00 3.9396852833229969e+00 1 1 0
146 2 1 2.4709999999999999e-02 7.0210992079420775e-01 1.7330646762585180e+00 4.8155329533381055e+00 1 1 0
108 1 2 4.0950000000000000e-02 2.4812731984366110e+00 6.1176849362324806e+00 2.1752422159945586e+00 0 0 1
118 1 5 -3.1189000000000000e-01 4.7971480868840555e+00 5.5056110920270545e+00 1.9739888682610620e+00 0 0 1
120 1 1 5.5329999999999997e-02 6.0228288839473789e+00 4.0127223483576264e+00 2.1893223306271148e+00 0 0 1
112 1 3 2.5561000000000000e-01 3.5319299134003832e+00 5.1595136999281577e+00 1.8005827334744637e+00 0 0 1
119 1 2 4.2160000000000003e-02 5.4630427704560631e+00 4.6787708552485645e+00 2.8764039390585765e+00 0 0 1
122 1 1 5.5329999999999997e-02 6.0977502648200215e+00 5.2969078922916131e+00 3.4525186265338097e+00 0 0 1
61 1 1 5.5329999999999997e-02 6.8264519750298760e+00 3.5514908431924268e+00 6.6196305008226721e+00 0 0 0
148 2 1 2.4709999999999999e-02 2.1840358164030378e+00 2.2497898063145603e+00 4.0170694824027651e+00 1 1 0
149 2 4 -2.6684999999999998e-01 2.2318433536193627e+00 1.0134691896474197e+00 1.4068754858043855e+00 0 0 0
121 1 1 5.5329999999999997e-02 4.7811846896766443e+00 4.0457018399301203e+00 3.5098818503920164e+00 0 0 1
114 1 1 2.4389999999999998e-02 4.8072983038886125e-01 6.2078111627326118e+00 2.8759663609284618e+00 0 0 1
113 1 2 -5.4429999999999999e-02 1.1812220527423998e+00 5.4457622378057398e+00 2.6279678199395673e+00 0 0 1
115 1 1 2.4389999999999998e-02 1.3197838287713042e+00 4.6988339948923041e+00 3.4260508207222564e+00 0 0 1
116 1 1 2.4389999999999998e-02 8.2585253185130414e-01 4.8530934896683471e+00 1.8504729785967711e+00 0 0 1
153 2 1 5.5329999999999997e-02 4.8362261123047228e+00 6.2447669996040600e-01 1.7363162395629474e+00 0 0 0
140 2 2 5.3929999999999999e-02 1.5808085825135136e+00 3.2860839908321537e-01 3.4682872786736887e+00 0 1 0
144 2 3 2.5884000000000001e-01 2.5119025055112609e+00 3.7251331872764470e-01 2.3971058210725760e+00 0 1 0
131 2 1 2.4690000000000000e-02 4.2088527638229341e+00 1.3221087567851861e+00 4.1351057199110706e+00 0 1 0
57 1 4 -2.6684999999999998e-01 5.2643050282966160e+00 5.1207421891895875e+00 6.1279617869076022e+00 0 0 0
52 1 3 2.5884000000000001e-01 5.9530750124977923e+00 5.9497500841140667e+00 6.7522631326386859e+00 0 0 0
117 1 4 -2.6718999999999998e-01 3.2303839143290620e+00 4.0642282428684844e+00 1.3079118548341453e+00 0 0 1
236 2 1 2.4389999999999998e-02 8.9564951016550820e-01 4.9946463205571607e+00 6.8950662022777998e+00 1 1 0
133 2 1 2.4690000000000000e-02 5.2901147654330662e+00 1.0940066802657584e+00 5.4673565210786910e+00 0 1 0
55 1 1 2.4709999999999999e-02 3.4865858767187263e+00 6.7964456750343194e+00 6.0561073587230245e+00 0 0 0
130 2 2 -5.1709999999999999e-02 4.5582941525648701e+00 6.0530506824860442e-01 4.7932800542659129e+00 0 1 0
125 2 2 5.0000000000000003e-02 3.3783277911934593e+00 1.0526187995039377e-01 5.6449808476990890e+00 0 1 0
127 2 1 2.4690000000000000e-02 2.7999972075562707e+00 2.1316091624524955e+00 6.0529810598528035e+00 1 1 0
124 2 2 -5.1709999999999999e-02 2.9803885022911878e+00 1.2865668725246093e+00 6.5867783088762097e+00 1 1 0
36 1 1 2.9790000000000001e-02 7.1618556971711671e+00 6.6826063011007379e+00 4.4048696198113735e+00 0 0 0
157 2 1 2.9790000000000001e-02 1.3647120996092221e+01 5.5461226306811984e-01 2.3456571564869804e+00 -1 0 0
12 1 4 -2.6685999999999999e-01 7.1209281640112989e+00 5.6663564709550567e+00 6.1870842949912586e-01 0 0 1
182 2 1 5.5329999999999997e-02 8.4418751067598414e+00 1.3742496560341468e+00 4.0458294942159982e+00 0 0 0
158 2 1 2.9790000000000001e-02 1.3379489384067327e+01 9.0019935783034286e-02 4.1420938601594992e+00 0 1 0
180 2 5 -3.1156000000000000e-01 9.4698467129851434e+00 1.0860562014393809e+00 2.2508821598989432e+00 0 0 0
181 2 2 4.2169999999999999e-02 8.2968804002148762e+00 8.5146491828652782e-01 3.1411630908199775e+00 0 0 0
24 1 1 2.4709999999999999e-02 8.5212420946418277e+00 5.2439728595975215e+00 2.9683801652862645e+00 0 0 0
184 2 1 5.5329999999999997e-02 7.4243463295447798e+00 1.3040485582802051e+00 2.6330153477026044e+00 0 0 0
174 2 3 2.5884000000000001e-01 1.0510300454494624e+01 2.7755053992614026e-01 2.5547881049774959e+00 0 0 0
179 2 4 -2.6684999999999998e-01 1.1177275899288970e+01 6.5462312202618878e-01 3.4909851650704389e+00 0 0 0
25 1 1 2.4709999999999999e-02 9.7992765498150547e+00 5.2336715973002388e+00 4.1027101566038713e+00 0 0 0
23 1 2 -5.1389999999999998e-02 9.4561364982547662e+00 5.7125763365309954e+00 3.1772223878869768e+00 0 0 0
26 1 1 2.4709999999999999e-02 1.0164402473918884e+01 5.5631637438468236e+00 2.3784364424844529e+00 0 0 0
35 1 1 2.9790000000000001e-02 8.4948612934047816e+00 6.8703612986457188e+00 5.4342900188635159e+00 0 0 0
188 2 1 2.9790000000000001e-02 1.1002376745072382e+01 5.7341806356379632e-01 2.4732576024413488e-01 0 1 1
16 1 1 5.5329999999999997e-02 8.2784496553396529e+00 3.8355123507312996e+00 1.2456862498065260e+00 0 0 1
17 1 1 5.5329999999999997e-02 9.8693707927809768e+00 3.2728124793328908e+00 6.9004037153196884e-01 0 0 1
221 2 1 2.4709999999999999e-02 1.3098207599257757e+01 1.8936443128435176e-01 6.9286014524849167e+00 0 1 0
222 2 1 2.4709999999999999e-02 1.1833194095244348e+01 1.3498018677543127e+00 6.6499208901250260e+00 0 1 0
7 1 3 2.5851000000000002e-01 8.2528691471166251e+00 6.0131798375106413e+00 4.1402267891239186e-01 0 0 1
14 1 2 4.2169999999999999e-02 8.9418213501175927e+00 3.7764550162848467e+00 4.1871277855128769e-01 0 0 1
239 2 4 -2.6718999999999998e-01 1.2262092869337559e+01 4.5277295769599641e+00 6.3414566451324248e+00 0 0 0
13 1 5 -3.1157000000000001e-01 9.2109180733300846e+00 5.1303589823644877e+00 1.0995945858432694e-01 0 0 1
154 2 1 5.5329999999999997e-02 4.5739740113878495e+00 1.3222577338094853e+01 5.8674944095346770e-01 0 -1 0
151 2 2 4.2169999999999999e-02 4.6167403050743818e+00 1.3466907015767571e+01 1.6494541543499606e+00 0 -1 0
48 1 2 5.3940000000000002e-02 5.4482833837000983e+00 7.3597564765193546e+00 6.8184936830015239e+00 0 0 0
53 1 2 -5.1389999999999998e-02 4.2943460655857759e+00 7.4973741619599972e+00 5.7542976999865916e+00 0 0 0
56 1 1 2.4709999999999999e-02 4.6200413149129549e+00 7.2811136001186831e+00 4.7586943814727540e+00 0 0 0
54 1 1 2.4709999999999999e-02 3.8895727468945598e+00 8.4708707002814680e+00 5.8025805818449188e+00 0 0 0
111 1 1 2.9470000000000000e-02 2.8674121056852919e+00 8.1115979089140815e+00 1.1998666373474258e+00 0 0 0
94 1 2 -2.7850000000000000e-02 2.2489700090959821e+00 7.2556352523304470e+00 1.0876161562594391e+00 0 0 1
110 1 1 2.9470000000000000e-02 1.2402160567910332e+00 7.5906421741786270e+00 1.4083913517180426e+00 0 0 0
141 2 2 -2.4830000000000001e-02 1.0206012617277870e-01 1.3729022961741205e+01 3.1936025477814645e+00 0 0 0
152 2 1 5.5329999999999997e-02 5.3570912985251811e+00 1.2884928366027683e+01 2.0781501232221111e+00 0 -1 0
43 1 5 -3.1156000000000000e-01 5.4396419715210902e+00 9.0685875052017533e+00 3.7585294037821582e+00 0 0 0
44 1 2 4.2169999999999999e-02 4.5406065548917525e+00 1.0144017702593191e+01 3.5148833370350103e+00 0 0 0
45 1 1 5.5329999999999997e-02 4.6443575710548179e+00 1.0432357646662924e+01 2.4532915997854867e+00 0 0 0
46 1 1 5.5329999999999997e-02 4.7101152320000379e+00 1.1004427704399028e+01 4.1850530683965514e+00 0 0 0
47 1 1 5.5329999999999997e-02 3.4905452651973872e+00 9.8734819976167856e+00 3.6642835913084895e+00 0 0 0
126 2 2 -2.5149999999999999e-02 2.1431855416176644e+00 1.3487470932223079e+01 4.7538756332681151e+00 0 0 0
143 2 1 2.9780000000000001e-02 2.4639215905180496e+00 1.2497280678882850e+01 4.4418728698506014e+00 0 0 0
150 2 5 -3.1156000000000000e-01 3.3980612195835747e+00 1.3182583054688546e+01 2.3136961901918989e+00 0 0 0
160 2 2 -5.1389999999999998e-02 5.1530650550909907e-01 1.1834559200585641e+01 1.5144817633302698e+00 0 0 0
161 2 1 2.4709999999999999e-02 5.4457191350485279e-01 1.2603785371743950e+01 8.0547004454180382e-01 0 0 0
162 2 1 2.4709999999999999e-02 9.4716994767764906e-02 1.0862606338817988e+01 1.1291714121478111e+00 0 0 0
163 2 1 2.4709999999999999e-02 1.4691494264985223e+00 1.1730329803925382e+01 1.9235273745381447e+00 0 0 0
142 2 1 2.9780000000000001e-02 1.2814787182040044e+00 1.3255160283481054e+01 5.4104082245436915e+00 1 0 0
132 2 1 2.4690000000000000e-02 5.1816788479211109e+00 1.3641434072478161e+01 4.2400165913223651e+00 0 0 0
164 2 4 -2.6684999999999998e-01 6.8652587053215597e-01 1.0343218115975796e+01 3.7554157439185070e+00 0 0 0
137 2 1 5.5329999999999997e-02 3.4531529661737257e+00 1.0630144831571879e+01 6.1333022277476523e+00 0 0 0
37 1 3 2.5884000000000001e-01 6.6350634569909879e+00 9.3779727054628026e+00 4.2134353532193298e+00 0 0 0
34 1 2 -2.4830000000000001e-02 6.6329772340148843e+00 8.4005408265473100e+00 6.5744618820279088e+00 0 0 0
134 2 4 -2.6685999999999999e-01 4.9368447924114740e+00 1.2568335721986909e+01 6.4912679596858576e+00 0 0 0
50 1 1 2.9790000000000001e-02 6.2128340954458672e+00 9.3842423369709902e+00 6.8901805452405638e+00 0 0 0
129 2 3 2.5851000000000002e-01 3.7954034336214861e+00 1.2920623184459087e+01 6.5951231354160704e+00 0 0 0
136 2 2 4.2169999999999999e-02 2.7498432001900168e+00 1.0913487871442632e+01 6.9039142245722953e+00 0 0 0
138 2 1 5.5329999999999997e-02 1.6945025683334862e+00 1.0898255763485514e+01 6.6194618703073980e+00 0 0 0
183 2 1 5.5329999999999997e-02 7.9908662553081653e+00 1.3659896812020689e+01 3.3521636774928631e+00 0 -1 0
19 1 2 -2.4830000000000001e-02 8.0476907605648655e+00 7.3621513984325215e+00 4.6156427908209405e+00 0 0 0
18 1 2 5.3929999999999999e-02 9.1568675220096072e+00 7.2547710811109463e+00 3.4336545259900926e+00 0 0 0
6 1 1 2.4690000000000000e-02 1.0788210027319801e+01 6.9196711107303646e+00 6.2640571084400942e-01 0 0 0
27 1 4 -2.6684999999999998e-01 1.0823122250699290e+01 7.9428752279180728e+00 4.8275090447929410e+00 0 0 0
187 2 1 2.9790000000000001e-02 1.2558384063770083e+01 1.3666997763489064e+01 5.0141236873292172e-01 0 -1 0
42 1 4 -2.6684999999999998e-01 7.1880939545331266e+00 1.0299559410272096e+01 3.6397905655112752e+00 0 0 0
155 2 2 5.3940000000000002e-02 1.3573614106574492e+01 1.2249900472329985e+01 2.7885198015421513e+00 -1 0 0
159 2 3 2.5884000000000001e-01 1.3797989682131165e+01 1.1273359758431967e+01 3.8757888992188536e+00 -1 0 0
171 2 2 -2.4830000000000001e-02 1.1524251285996991e+01 1.3493972661900123e+01 3.5725778116842999e-01 0 0 0
20 1 1 2.9780000000000001e-02 7.4038595904315985e+00 7.8607403227248005e+00 2.2734903229007779e+00 0 0 0
170 2 2 5.3940000000000002e-02 1.0984272458708970e+01 1.2917960908589917e+01 1.7584076827336490e+00 0 0 0
177 2 1 2.4709999999999999e-02 8.9415763746436117e+00 1.2519032154496601e+01 1.0440128118697880e+00 0 0 0
22 1 3 2.5884000000000001e-01 1.0445777335978029e+01 7.9641997652315668e+00 3.6970895381042981e+00 0 0 0
175 2 2 -5.1389999999999998e-02 9.7080485460878485e+00 1.2058466800938739e+01 1.6634576669547438e+00 0 0 0
3 1 2 5.0000000000000003e-02 8.7121735443951547e+00 7.3912031282228368e+00 5.3342907583279675e-01 0 0 0
4 1 2 -2.5149999999999999e-02 8.4912125023086347e+00 7.7974148400040031e+00 2.0761609659310540e+00 0 0 0
21 1 1 2.9780000000000001e-02 8.7857063899374683e+00 8.8704195217396169e+00 2.0838166624957517e+00 0 0 0
33 1 2 5.3940000000000002e-02 7.4363191323567026e+00 8.6959669974854705e+00 5.2141761559898647e+00 0 0 0
156 2 2 -2.4830000000000001e-02 1.2017841386595691e+01 1.2029325067952717e+01 2.5775903981889763e+00 -1 0 0
173 2 1 2.9790000000000001e-02 1.1997035863018096e+01 1.1123310725272541e+01 2.0261817211681046e+00 -1 0 0
40 1 1 2.4709999999999999e-02 8.1644867981790679e+00 1.0717979853822976e+01 5.8982484575101521e+00 0 0 0
178 2 1 2.4709999999999999e-02 9.2848744804945422e+00 1.1890720424087787e+01 2.6953203909271672e+00 0 0 0
172 2 1 2.9790000000000001e-02 1.1436098948190757e+01 1.1872952834017951e+01 3.5439837248823669e+00 -1 0 0
38 1 2 -5.1389999999999998e-02 8.5635308882394945e+00 9.7084429149634115e+00 5.7034333383564828e+00 0 0 0
41 1 1 2.4709999999999999e-02 9.3720001031866484e+00 9.7891499297541156e+00 5.0617615254014270e+00 0 0 0
5 1 1 2.4690000000000000e-02 1.0456497726388903e+01 8.6406375895286001e+00 5.5511703690476277e-01 0 0 0
28 1 5 -3.1156000000000000e-01 1.1226210083765611e+01 8.6157426630924352e+00 2.8303712844639648e+00 0 0 0
29 1 2 4.2169999999999999e-02 1.2467682813168341e+01 8.0099578181140210e+00 2.4920548830033069e+00 0 0 0
30 1 1 5.5329999999999997e-02 1.2941087835150505e+01 8.5851524524607470e+00 1.7006542874756450e+00 0 0 0
31 1 1 5.5329999999999997e-02 1.2293484284627498e+01 6.9863019340289041e+00 2.1824815426374151e+00 0 0 0
32 1 1 5.5329999999999997e-02 1.3190177291421092e+01 8.0240357136649507e+00 3.3130545060139385e+00 0 0 0
39 1 1 2.4709999999999999e-02 9.0178734321613483e+00 9.4143612887156998e+00 6.6403578522414852e+00 0 0 0
165 2 5 -3.1156000000000000e-01 1.3335860033758818e+01 1.1613826476872719e+01 5.0351929711016812e+00 0 0 0
166 2 2 4.2169999999999999e-02 1.2700541898536546e+01 1.0588875583352293e+01 5.7428802578389915e+00 0 0 0
167 2 1 5.5329999999999997e-02 1.2134005187088571e+01 1.0954283335453519e+01 6.5963203176206697e+00 0 0 0
168 2 1 5.5329999999999997e-02 1.3346529964523022e+01 9.8718148037579070e+00 6.1914329247199786e+00 0 0 0
169 2 1 5.5329999999999997e-02 1.1959054602231236e+01 1.0068745314650284e+01 5.2089106545743942e+00 0 0 0
176 2 1 2.4709999999999999e-02 9.9840601623443330e+00 1.1073896458521304e+01 1.3341188610384980e+00 0 0 0
2 1 2 -5.1709999999999999e-02 1.0151423380556222e+01 7.6744242559319416e+00 1.0167427415163519e-01 0 0 0
235 2 2 -5.4429999999999999e-02 7.8229090215032226e-01 4.9580308846949244e+00 7.9819028329004436e+00 1 0 0
237 2 1 2.4389999999999998e-02 1.6462944908730828e+00 4.4926164376006605e+00 8.3884873335850774e+00 1 0 0
238 2 1 2.4389999999999998e-02 6.4043611822667479e-01 5.9731069580971745e+00 8.3126774271964194e+00 1 0 0
65 1 1 2.9790000000000001e-02 4.1194026127154864e+00 6.5705869864236783e+00 8.2723705816077135e+00 0 0 0
88 1 5 -3.1156000000000000e-01 5.2570162548363060e+00 4.9236849181694406e+00 1.1691716998416652e+01 0 0 0
90 1 1 5.5329999999999997e-02 4.5216703030556413e+00 2.9287808671323781e+00 1.1430619361515621e+01 0 0 0
96 1 1 2.9790000000000001e-02 4.0364530148319613e+00 6.3662912822760607e+00 1.3345951502275140e+01 0 0 0
103 1 5 -3.1156000000000000e-01 1.8688515838571766e+00 4.7025187052066517e+00 1.2876524341373829e+01 0 0 0
69 1 1 2.4709999999999999e-02 6.3795889805948356e+00 5.7735572518430267e+00 9.6405565669124211e+00 0 0 0
89 1 2 4.2169999999999999e-02 4.9668670366156826e+00 3.6115932489337523e+00 1.2131948145974842e+01 0 0 0
68 1 2 -5.1389999999999998e-02 6.7390649642264249e+00 6.8176913666334373e+00 9.7694574773671174e+00 0 0 0
104 1 2 4.2169999999999999e-02 1.0862341924388002e+00 3.6568324278755200e+00 1.2224024830894230e+01 0 0 0
105 1 1 5.5329999999999997e-02 1.2177841675180331e-01 3.4355018777589095e+00 1.2603345581558029e+01 0 0 0
97 1 3 2.5883000000000000e-01 1.2191440466567642e+00 5.8268528156786115e+00 1.3166152957341188e+01 0 0 0
91 1 1 5.5329999999999997e-02 4.2972307609180724e+00 3.6656920940439606e+00 1.2948039529660864e+01 0 0 0
92 1 1 5.5329999999999997e-02 5.9144289992351418e+00 3.2141767062070654e+00 1.2502315875202809e+01 0 0 0
123 2 1 2.4690000000000000e-02 3.7277208599070653e+00 1.5821328538256685e+00 7.3518262707900881e+00 1 1 0
128 2 1 2.4690000000000000e-02 2.0705064421293424e+00 9.1884098612432019e-01 7.1001727334207487e+00 1 1 0
106 1 1 5.5329999999999997e-02 1.7174544349640561e+00 2.7740796936110836e+00 1.2366123418221907e+01 0 0 0
107 1 1 5.5329999999999997e-02 9.8197537026681647e-01 3.9387138771180736e+00 1.1230202579954268e+01 0 0 0
232 2 1 2.9470000000000000e-02 1.7338526016395078e-01 2.2480505255667396e+00 7.3575266809410955e+00 1 1 0
218 2 1 2.9790000000000001e-02 2.3504959379871035e-01 8.3183924069597248e-01 1.0354111617296022e+01 0 0 0
233 2 1 2.9470000000000000e-02 5.4611513175170501e-01 2.4740386176811473e+00 9.0721202497982940e+00 1 0 0
102 1 4 -2.6684999999999998e-01 3.0365953183719447e-02 5.8808592252558052e+00 1.3482208941656035e+01 0 0 0
78 1 2 5.3940000000000002e-02 3.6852570599677832e+00 6.7851622545432217e+00 1.1184753514774581e+01 0 0 0
82 1 3 2.5884000000000001e-01 4.1827818439334434e+00 5.4352710450220991e+00 1.0991198192654192e+01 0 0 0
84 1 1 2.4709999999999999e-02 1.6269174276427805e+00 6.4637011670879359e+00 1.0785556691365626e+01 0 0 0
85 1 1 2.4709999999999999e-02 2.5067918551906341e+00 6.5723898485704364e+00 9.4049334168810343e+00 0 0 0
87 1 4 -2.6684999999999998e-01 3.7260917155087880e+00 4.7837175656112318e+00 1.0130098840711822e+01 0 0 0
59 1 2 4.2169999999999999e-02 7.3648309639788163e+00 4.2475435674760496e+00 7.3497015655094202e+00 0 0 0
58 1 5 -3.1156000000000000e-01 7.1877473274966786e+00 5.6208652863279562e+00 7.1625240989070189e+00 0 0 0
231 2 1 4.2240000000000000e-02 1.3164968660230251e+01 4.4303530976871857e+00 9.4051896649271480e+00 0 0 0
60 1 1 5.5329999999999997e-02 8.4803765276073779e+00 3.9929964017821056e+00 7.2627265583310141e+00 0 0 0
62 1 1 5.5329999999999997e-02 7.1118388189657882e+00 3.9594370125940710e+00 8.3699552538251876e+00 0 0 0
70 1 1 2.4709999999999999e-02 7.1493838558744640e+00 6.9195238108125263e+00 1.0752666563022311e+01 0 0 0
201 2 2 -2.4840000000000001e-02 1.3452875363869328e+01 3.4665308537581402e-01 9.7094246020324633e+00 -1 0 0
202 2 1 2.9790000000000001e-02 1.3118836117027481e+01 1.3839058628012413e+01 1.2420493947474739e+01 0 -1 0
15 1 1 5.5329999999999997e-02 8.4888516733654278e+00 3.2554692166382408e+00 1.3394829684097031e+01 0 0 0
215 2 2 5.3659999999999999e-02 1.2626293844205708e+01 1.4108485739307473e+00 8.7624706543725921e+00 0 0 0
216 2 2 -2.7850000000000000e-02 1.3594943461866372e+01 2.5425032456459347e+00 8.3426570081578504e+00 0 0 0
219 2 3 2.5883000000000000e-01 1.1478323080823074e+01 2.0341290869523965e+00 9.3997725005505650e+00 0 0 0
224 2 4 -2.6684999999999998e-01 1.0406038680921432e+01 1.6913765637844422e+00 8.9319096734965608e+00 0 0 0
225 2 5 -3.1156000000000000e-01 1.1531490586609408e+01 2.8268281790858847e+00 1.0446753292392273e+01 0 0 0
226 2 2 4.2169999999999999e-02 1.0358983918380909e+01 3.6273103868874843e+00 1.0635212618720974e+01 0 0 0
227 2 1 5.5329999999999997e-02 9.6915506205094193e+00 3.5941112065376153e+00 9.7700806836923366e+00 0 0 0
228 2 1 5.5329999999999997e-02 1.0614501035365924e+01 4.6390639190459009e+00 1.0904568349030846e+01 0 0 0
229 2 1 5.5329999999999997e-02 9.6978959399006044e+00 3.1800796639277880e+00 1.1452405048208384e+01 0 0 0
230 2 2 4.0950000000000000e-02 1.3418213463402369e+01 4.1051322972896136e+00 8.3801515313364749e+00 0 0 0
234 2 3 2.5561000000000000e-01 1.2296708726179544e+01 4.6188018863344693e+00 7.5687274408183196e+00 0 0 0
240 2 5 -3.1189000000000000e-01 1.1348869787166361e+01 5.2340935850995063e+00 8.2374375727734801e+00 0 0 0
203 2 1 2.9790000000000001e-02 1.1737395390923476e+01 6.2682293738037809e-01 1.1688067119819387e+01 0 0 0
220 2 2 -5.1409999999999997e-02 1.2252585988881025e+01 6.6852476622885049e-01 7.3929224475192310e+00 0 1 0
197 2 1 5.5329999999999997e-02 7.6069492215261469e+00 9.4085971944104907e-01 1.2047971329197761e+01 -1 1 0
241 2 2 4.2160000000000003e-02 1.1403672734329136e+01 6.6288721805060753e+00 7.9024786666996336e+00 0 0 0
242 2 1 5.5329999999999997e-02 1.0729167199751048e+01 6.7080006380899153e+00 7.0284305531356353e+00 0 0 0
195 2 5 -3.1156000000000000e-01 9.3214166411411163e+00 1.4899092086939155e-02 1.2510260173365067e+01 -1 1 0
81 1 1 2.9790000000000001e-02 5.3967689083411994e+00 8.1983845478863415e+00 1.1577985725332329e+01 0 0 0
217 2 1 2.9790000000000001e-02 2.7229487974963745e-01 1.3740170234578542e+01 9.0138314318766675e+00 0 0 0
206 2 1 2.4709999999999999e-02 8.9251792276939534e-01 1.2460696355964755e+01 1.1519618649662734e+01 0 -1 0
64 1 2 -2.4830000000000001e-02 4.7097930777982393e+00 7.9444021248402219e+00 1.0790365924564419e+01 0 0 0
80 1 1 2.9790000000000001e-02 4.0929445306909553e+00 8.7827017619593715e+00 1.0699543105513879e+01 0 0 0
63 1 2 5.3940000000000002e-02 5.5816785259309745e+00 7.9059784972774203e+00 9.4893928542043273e+00 0 0 0
139 2 1 5.5329999999999997e-02 2.8951898356223942e+00 1.0244687965905248e+01 7.7523674160433540e+00 0 0 0
99 1 1 2.4709999999999999e-02 1.5483658100372109e+00 9.1653940749555503e+00 1.2719515825502796e+01 0 0 0
49 1 2 -2.4830000000000001e-02 4.7272459457886198e+00 7.4856550364006003e+00 8.2111363658061638e+00 0 0 0
205 2 2 -5.1389999999999998e-02 1.8330493010036714e-01 1.1996363626712576e+01 1.0854123285646001e+01 0 -1 0
207 2 1 2.4709999999999999e-02 7.6599516601540063e-01 1.1858919313656790e+01 9.9850390518573917e+00 0 0 0
10 1 1 2.4690000000000000e-02 6.7537336552231046e+00 8.4765415992157305e+00 1.3647510218203108e+01 0 0 -1
79 1 2 -2.4840000000000001e-02 3.4115205652215437e+00 6.9956326281646275e+00 1.2735627923997713e+01 0 0 0
93 1 2 5.3659999999999999e-02 1.9611995523463825e+00 7.0265299442193792e+00 1.3398669569735439e+01 0 0 0
95 1 1 2.9790000000000001e-02 3.7000903465777326e+00 8.0030287566592104e+00 1.2941756237994804e+01 0 0 0
66 1 1 2.9790000000000001e-02 4.0690532579293350e+00 8.3344506437153800e+00 8.0702642919791554e+00 0 0 0
73 1 5 -3.1156000000000000e-01 5.4702630734722533e+00 1.0363853535592343e+01 8.8789156550834409e+00 0 0 0
83 1 2 -5.1389999999999998e-02 2.3937977419505825e+00 7.0372996554253486e+00 1.0336919566120351e+01 0 0 0
86 1 1 2.4709999999999999e-02 2.0530653316088969e+00 8.1310013304378437e+00 1.0325444107529794e+01 0 0 0
98 1 2 -5.1409999999999997e-02 1.0289490902459446e+00 8.1919291062303525e+00 1.2894106519763431e+01 0 0 0
101 1 1 2.4709999999999999e-02 4.9894120003754167e-01 7.8600361649076325e+00 1.1996591670275359e+01 0 0 0
135 2 5 -3.1157000000000001e-01 3.0096171743660851e+00 1.2222952715337916e+01 7.4422681773928465e+00 0 0 0
100 1 1 2.4709999999999999e-02 1.6154116181457784e-01 8.3337667922148935e+00 1.3589759545945100e+01 0 0 0
67 1 3 2.5884000000000001e-01 6.1550288111959235e+00 9.2748620048105082e+00 9.2986054493697559e+00 0 0 0
74 1 2 4.2169999999999999e-02 5.2359823183837699e+00 1.1403308993607522e+01 9.8432604444682141e+00 0 0 0
75 1 1 5.5329999999999997e-02 5.0548907743227440e+00 1.0970800123005121e+01 1.0858510623505609e+01 0 0 0
76 1 1 5.5329999999999997e-02 4.3245138358826951e+00 1.1953282120442600e+01 9.6273380930195245e+00 0 0 0
77 1 1 5.5329999999999997e-02 6.1684712430656496e+00 1.2020473950777889e+01 9.8381460278167907e+00 0 0 0
193 2 1 2.4709999999999999e-02 1.1467190278178256e+01 1.0795517309494160e+01 1.3791655404365889e+01 -1 -1 -1
186 2 2 -2.4830000000000001e-02 1.2235944881786459e+01 1.3552457032488800e+01 1.1879210630600914e+01 0 -1 0
71 1 1 2.4709999999999999e-02 7.5216581655175139e+00 6.9413386357637510e+00 8.9940735980538626e+00 0 0 0
208 2 1 2.4709999999999999e-02 1.3641570969218323e+01 1.1007927398230084e+01 1.1161321969857504e+01 -1 -1 0
200 2 2 5.3940000000000002e-02 1.2817967344247453e+01 1.3001609062446351e+01 1.0527529036447611e+01 -1 0 0
191 2 1 2.4709999999999999e-02 1.3108400040491814e+01 1.1339289278935201e+01 1.3251817443072605e+01 0 -1 -1
190 2 2 -5.1389999999999998e-02 1.2008253627447440e+01 1.1288623486316840e+01 1.2984440392648761e+01 -1 -1 -1
192 2 1 2.4709999999999999e-02 1.1899174765235367e+01 1.0620888637470790e+01 1.2156186388301069e+01 -1 -1 0
185 2 2 5.3940000000000002e-02 1.1417558263833737e+01 1.2703460210216102e+01 1.2866972475438271e+01 0 -1 0
223 2 1 2.4709999999999999e-02 1.1603651872569809e+01 1.3632981994597120e+01 7.5510388465924629e+00 0 0 0
51 1 1 2.9790000000000001e-02 7.4134131194249226e+00 8.1482211124844905e+00 7.3092011963875345e+00 0 0 0
1 1 1 2.4690000000000000e-02 1.0340556366994877e+01 7.4858065640107769e+00 1.2920660597558193e+01 0 0 0
194 2 4 -2.6684999999999998e-01 9.4609377769500878e+00 1.1664895717104249e+01 1.2170473458054362e+01 -1 0 0
209 2 4 -2.6684999999999998e-01 1.2423298179799751e+01 1.1552764936173929e+01 8.8439358743236269e+00 -1 0 0
8 1 2 -5.1709999999999999e-02 7.8367836395382167e+00 8.3613941411200319e+00 1.3504520950280037e+01 0 0 -1
9 1 1 2.4690000000000000e-02 8.1706277357211228e+00 9.3794782622824702e+00 1.3456959878000957e+01 0 0 -1
204 2 3 2.5884000000000001e-01 1.1907197611722655e+01 1.2256674372366541e+01 9.7050573326008589e+00 -1 0 0
243 2 1 5.5329999999999997e-02 1.2423711515698752e+01 6.9559274947761045e+00 7.5818558920470487e+00 0 0 0
244 2 1 5.5329999999999997e-02 1.1063512486761601e+01 7.2269883995924147e+00 8.7200530633110525e+00 0 0 0
198 2 1 5.5329999999999997e-02 7.3647967269494812e+00 1.3181577513483285e+01 1.2583797347930744e+01 -1 0 -1
72 1 4 -2.6684999999999998e-01 7.3889159560215543e+00 9.4054741783058784e+00 9.4790756404439716e+00 0 0 0
189 2 3 2.5884000000000001e-01 1.0026590242295610e+01 1.2710043490162295e+01 1.2417461729613422e+01 -1 0 0
196 2 2 4.2169999999999999e-02 8.0682744607056325e+00 1.3804300032027140e+01 1.1964329292498352e+01 -1 0 0
199 2 1 5.5329999999999997e-02 8.0675175150918168e+00 1.3435066146293767e+01 1.0955280448921236e+01 -1 0 0
11 1 1 2.4690000000000000e-02 7.9347946078810221e+00 7.9753641620982858e+00 1.2446061220033576e+01 0 0 0
213 2 1 5.5329999999999997e-02 1.0069100489434270e+01 1.0545038035870160e+01 9.3041321145072349e+00 -1 0 0
214 2 1 5.5329999999999997e-02 9.6803164920509737e+00 1.1603902322944402e+01 8.0281146760102988e+00 -1 0 0
210 2 5 -3.1156000000000000e-01 1.0559617094587946e+01 1.2531357535527720e+01 9.6898170400798467e+00 0 0 0
211 2 2 4.2169999999999999e-02 9.6654391740667371e+00 1.1567991360671741e+01 9.1253432828004524e+00 0 0 0
212 2 1 5.5329999999999997e-02 8.6395572325566974e+00 1.1722541187180985e+01 9.4668046070458178e+00 0 0 0

Velocities

109 1.7707956884188427e-03 1.2778316849841483e-02 3.7311810499690732e-03
147 7.4843029988558014e-04 1.6323892785438620e-02 8.0148202698231055e-03
145 -1.4440575750677742e-04 -4.3128688934992720e-03 2.7628056899734227e-03
146 -7.7698368399453524e-03 -2.6305452209196077e-02 7.1703941210917938e-03
108 -1.8487472378928768e-03 -7.5109674583584167e-03 4.7711938022148735e-03
118 -1.7543000204317367e-03 -7.2454430005081680e-04 2.3706111391453700e-03
120 -2.1345679813388401e-02 -1.6312620386003618e-02 -1.5647395063962597e-03
112 2.7146711224084207e-03 5.6186013937137838e-03 5.9997456498737424e-03
119 -4.9131577494796429e-03 1.7072977927602541e-03 7.7366662205715839e-04
122 -2.3561379979551891e-02 -2.3347146751628585e-02 7.9215365096388553e-03
61 -6.7490993001287289e-03 1.8072244709019985e-03 1.8242396727793722e-02
148 1.6322335931030760e-02 9.0237607443653355e-03 -5.8107360650530588e-03
149 -9.6428856705957908e-04 -4.2577294167643636e-04 5.3099586607567202e-03
121 -1.7371001406045971e-03 3.0697217687508407e-02 7.3676474012502862e-03
114 1.3632075815341068e-02 1.5102738763853745e-02 1.1177315579705938e-02
113 -1.6455272635032515e-03 -1.8185087104344840e-03 -8.7047955949947232e-04
115 3.2686914269418402e-03 1.2034227339686955e-03 -6.4046016940629714e-03
116 2.2531948025898165e-02 2.3186343332124219e-02 -2.0710275284259110e-02
153 -1.4728336527985405e-02 1.1201978413976327e-02 -1.2734899640942239e-02
140 -6.2349962119884030e-03 -4.9580273762772162e-03 9.2867553243746580e-03
144 -1.4248539602075452e-04 -5.3284826405131189e-04 7.8654088274169691e-03
131 3.9063571201988041e-03 -2.0487717918943678e-03 -3.8691714461253621e-02
57 -1.8600100600348623e-03 4.3943424275634402e-03 3.3581135877034287e-03
52 -2.7836847536643386e-03 -4.0529768299747354e-03 -3.1621376394310803e-03
117 2.2192617581405514e-05 -8.5433275519314204e-04 -3.1481331396371695e-03
236 -1.1451654275096984e-02 1.7686012549205557e-02 2.2061394010331546e-02
133 -1.3502082189054659e-02 2.1272478633069705e-02 5.5671297539687283e-03
55 -1.1817300371655407e-02 1.6416474685678614e-03 -3.3446136558608506e-03
130 5.2051298701633825e-03 -5.0848214746634923e-03 2.5749631302128340e-03
125 -1.7983309421481376e-03 2.6936699602071951e-03 1.3951357107552303e-03
127 -5.5850905842900825e-03 5.1815717100155336e-03 -3.0226762210684203e-02
124 4.4779515191188706e-04 -2.5897811008461519e-03 -1.5917334582579257e-03
36 3.2213013734455594e-03 -2.1953031106303828e-02 8.9569414624622954e-03
157 -1.1713592542947208e-03 3.8083936288808517e-03 -4.1728832018846883e-03
12 -2.6479204128847917e-03 3.6966008260252222e-03 -1.8510014568206903e-03
182 1.0109636150046212e-02 8.6490702347208209e-03 1.7589611794033070e-02
158 -1.1176831862058671e-02 -6.9905909660399989e-04 2.5367196198373522e-03
180 -1.1267418005489268e-02 -8.3478695841294210e-03 4.4546462898130091e-03
181 -6.8083350810654462e-04 1.2697009291136754e-02 1.5591676608004716e-03
24 5.3998076776134414e-03 -3.2758663377933830e-02 -1.5099065508582138e-02
184 -8.9903673952782173e-03 -8.2500453866359812e-03 8.7228054230616223e-03