1
Lattice="15.0 0.0 0.0 0.0 16.0 0.0 0.0 0.0 17.0" Properties=species:S:1:pos:R:3:dft_forces:R:3 pbc="T T T" structure_info=atom structure=atom dft_energy=-2561.49240893
Ru       0.00000000       0.00000000       0.00000000       0.00000000       0.00000000       0.00000000 
1
Lattice="15.0 0.0 0.0 0.0 16.0 0.0 0.0 0.0 17.0" Properties=species:S:1:pos:R:3:dft_forces:R:3 pbc="T T T" structure_info=atom structure=atom dft_energy=-430.593521611
O       0.00000000       0.00000000       0.00000000       0.00000000       0.00000000       0.00000000 
2
Lattice="14.9999940909 0.0 0.0 0.0 15.9999986969 0.0 0.0 0.0 16.999988303" Properties=species:S:1:pos:R:3:dft_forces:R:3 pbc="T T T" structure_info=atom structure=atom dft_energy=-862.844641683
O       0.00000000       0.00000000       0.00000000     -41.97466058       0.00011184      -0.00005965
O       0.97714950       0.00000000       0.00000000      41.97466058      -0.00011184       0.00005965
2
Lattice="14.9999940909 0.0 0.0 0.0 15.9999986969 0.0 0.0 0.0 16.999988303" Properties=species:S:1:pos:R:3:dft_forces:R:3 pbc="T T T" structure_info=atom structure=atom dft_energy=-865.979001993
O       0.00000000       0.00000000       0.00000000     -13.06193757      -0.00017252      -0.00055073
O       1.09929300       0.00000000       0.00000000      13.06193757       0.00017252       0.00055073
2
Lattice="15.0 0.0 0.0 0.0 16.0 0.0 0.0 0.0 17.0" Properties=species:S:1:pos:R:3:dft_forces:R:3 pbc="T T T" structure_info=atom structure=atom dft_energy=-866.663139824
O       0.00000000       0.00000000       0.00000000       0.02408532      -0.00000771      -0.00000051
O       1.22143643       0.00000000       0.00000000      -0.02408532       0.00000771       0.00000051
2
Lattice="14.9999940909 0.0 0.0 0.0 15.9999986969 0.0 0.0 0.0 16.999988303" Properties=species:S:1:pos:R:3:dft_forces:R:3 pbc="T T T" structure_info=atom structure=atom dft_energy=-866.268866084
O       0.00000000       0.00000000       0.00000000       5.57990895       0.00025917      -0.00001954
O       1.34358000       0.00000000       0.00000000      -5.57990895      -0.00025917       0.00001954
2
Lattice="14.9999940909 0.0 0.0 0.0 15.9999986969 0.0 0.0 0.0 16.999988303" Properties=species:S:1:pos:R:3:dft_forces:R:3 pbc="T T T" structure_info=atom structure=atom dft_energy=-865.435184419
O       0.00000000       0.00000000       0.00000000       7.66217234      -0.00165296       0.00019309
O       1.46572350       0.00000000       0.00000000      -7.66217234       0.00165296      -0.00019309
6
Lattice="4.553199068 0.0 0.0 0.0 4.553201402 0.0 0.0 0.0 3.134026427" Properties=species:S:1:pos:R:3:dft_forces:R:3 pbc="T T T" structure_info=rlxbulk structure=bulk dft_energy=-6872.98227425
O       3.67063048       0.88256970       1.56701342       0.00003908      -0.00004319      -0.00000360 
O       0.88256930       3.67063186       1.56701312      -0.00004062       0.00004397       0.00000154 
Ru       2.27659820       2.27660007       1.56701315       0.00003368       0.00001594       0.00000103 
O       3.15760555       3.15760726      -0.00000014       0.00009025       0.00008896       0.00000077 
O       1.39559261       1.39559386       0.00000006      -0.00008459      -0.00008742      -0.00000051 
Ru       0.00000153       0.00000076       0.00000002      -0.00003754      -0.00001800       0.00000077 
72
Lattice="7.285117316114 0.0 0.0 0.0 7.285117316114 0.0 0.0 0.0 7.521599509312378" Properties=species:S:1:pos:R:3:Z:I:1:dft_forces:R:3 pbc="T T T" structure_info=0.80bulk structure=bulk  dft_energy=-81993.5400279
Ru       0.00000000       0.00000000       0.00000000       44       0.00000000       0.00000000       0.00000000 
Ru       1.82128000       1.82128000       1.25360000       44       0.00000051       0.00000051       0.00173035 
O       1.11520617       1.11520617       0.00000000        8      -2.16930790      -2.16930790       0.00000000 
O       2.52735383       2.52735383       0.00000000        8       2.16930276       2.16930276       0.00000000 
O       0.70607383       2.93648617       1.25360000        8       2.10364830      -2.10364804      -0.10181037 
O       2.93648617       0.70607383       1.25360000        8      -2.10364804       2.10364830      -0.10181037 
Ru       0.00000000       0.00000000       2.50720000       44       0.00000000       0.00000000      -0.00170773 
Ru       1.82128000       1.82128000       3.76080000       44      -0.00000591      -0.00000591       0.00000000 
O       1.11520617       1.11520617       2.50720000        8      -2.10361488      -2.10361488       0.10187979 
O       2.52735383       2.52735383       2.50720000        8       2.10361925       2.10361925       0.10187542 
O       0.70607383       2.93648617       3.76080000        8       2.16934030      -2.16933824      -0.00000000 
O       2.93648617       0.70607383       3.76080000        8      -2.16933824       2.16934030       0.00000000 
Ru       0.00000000       0.00000000       5.01440000       44       0.00000000       0.00000000       0.00170773 
Ru       1.82128000       1.82128000       6.26800000       44       0.00000051       0.00000051      -0.00173035 
O       1.11520617       1.11520617       5.01440000        8      -2.10361488      -2.10361488      -0.10187979 
O       2.52735383       2.52735383       5.01440000        8       2.10361925       2.10361925      -0.10187542 
O       0.70607383       2.93648617       6.26800000        8       2.10364830      -2.10364804       0.10181037 
O       2.93648617       0.70607383       6.26800000        8      -2.10364804       2.10364830       0.10181037 
Ru       0.00000000       3.64256000       0.00000000       44       0.00000000       0.00000000       0.00000000 
Ru       1.82128000       5.46384000       1.25360000       44       0.00000180      -0.00000180       0.00178126 
O       1.11520617       4.75776617       0.00000000        8      -2.16930636      -2.16930482       0.00000000 
O       2.52735383       6.16991383       0.00000000        8       2.16930482       2.16930636       0.00000000 
O       0.70607383       6.57904617       1.25360000        8       2.10365293      -2.10365293      -0.10185871 
O       2.93648617       4.34863383       1.25360000        8      -2.10365319       2.10365319      -0.10184302 
Ru       0.00000000       3.64256000       2.50720000       44       0.00000000       0.00000000      -0.00179540 
Ru       1.82128000       5.46384000       3.76080000       44      -0.00000514       0.00000514       0.00000000 
O       1.11520617       4.75776617       2.50720000        8      -2.10363776      -2.10363750       0.10178003 
O       2.52735383       6.16991383       2.50720000        8       2.10363750       2.10363776       0.10178003 
O       0.70607383       6.57904617       3.76080000        8       2.16931767      -2.16931767       0.00000000 
O       2.93648617       4.34863383       3.76080000        8      -2.16931793       2.16931793      -0.00000000 
Ru       0.00000000       3.64256000       5.01440000       44       0.00000000       0.00000000       0.00179540 
Ru       1.82128000       5.46384000       6.26800000       44       0.00000180      -0.00000180      -0.00178126 
O       1.11520617       4.75776617       5.01440000        8      -2.10363776      -2.10363750      -0.10178003 
O       2.52735383       6.16991383       5.01440000        8       2.10363750       2.10363776      -0.10178003 
O       0.70607383       6.57904617       6.26800000        8       2.10365293      -2.10365293       0.10185871 
O       2.93648617       4.34863383       6.26800000        8      -2.10365319       2.10365319       0.10184302 
Ru       3.64256000       0.00000000       0.00000000       44       0.00000000       0.00000000       0.00000000 
Ru       5.46384000       1.82128000       1.25360000       44      -0.00000180       0.00000180       0.00178126 
O       4.75776617       1.11520617       0.00000000        8      -2.16930482      -2.16930636       0.00000000 
O       6.16991383       2.52735383       0.00000000        8       2.16930636       2.16930482       0.00000000 
O       4.34863383       2.93648617       1.25360000        8       2.10365319      -2.10365319      -0.10184302 
O       6.57904617       0.70607383       1.25360000        8      -2.10365293       2.10365293      -0.10185871 
Ru       3.64256000       0.00000000       2.50720000       44       0.00000000       0.00000000      -0.00179540 
Ru       5.46384000       1.82128000       3.76080000       44       0.00000514      -0.00000514       0.00000000 
O       4.75776617       1.11520617       2.50720000        8      -2.10363750      -2.10363776       0.10178003 
O       6.16991383       2.52735383       2.50720000        8       2.10363776       2.10363750       0.10178003 
O       4.34863383       2.93648617       3.76080000        8       2.16931793      -2.16931793      -0.00000000 
O       6.57904617       0.70607383       3.76080000        8      -2.16931767       2.16931767       0.00000000 
Ru       3.64256000       0.00000000       5.01440000       44       0.00000000       0.00000000       0.00179540 
Ru       5.46384000       1.82128000       6.26800000       44      -0.00000180       0.00000180      -0.00178126 
O       4.75776617       1.11520617       5.01440000        8      -2.10363750      -2.10363776      -0.10178003 
O       6.16991383       2.52735383       5.01440000        8       2.10363776       2.10363750      -0.10178003 
O       4.34863383       2.93648617       6.26800000        8       2.10365319      -2.10365319       0.10184302 
O       6.57904617       0.70607383       6.26800000        8      -2.10365293       2.10365293       0.10185871 
Ru       3.64256000       3.64256000       0.00000000       44       0.00000000       0.00000000       0.00000000 
Ru       5.46384000       5.46384000       1.25360000       44      -0.00000051      -0.00000051       0.00173035 
O       4.75776617       4.75776617       0.00000000        8      -2.16930276      -2.16930276       0.00000000 
O       6.16991383       6.16991383       0.00000000        8       2.16930790       2.16930790       0.00000000 
O       4.34863383       6.57904617       1.25360000        8       2.10364804      -2.10364830      -0.10181037 
O       6.57904617       4.34863383       1.25360000        8      -2.10364830       2.10364804      -0.10181037 
Ru       3.64256000       3.64256000       2.50720000       44       0.00000000       0.00000000      -0.00171467 
Ru       5.46384000       5.46384000       3.76080000       44       0.00000591       0.00000591       0.00000000 
O       4.75776617       4.75776617       2.50720000        8      -2.10361925      -2.10361925       0.10187542 
O       6.16991383       6.16991383       2.50720000        8       2.10361488       2.10361488       0.10187979 
O       4.34863383       6.57904617       3.76080000        8       2.16933824      -2.16934030       0.00000000 
O       6.57904617       4.34863383       3.76080000        8      -2.16934030       2.16933824      -0.00000000 
Ru       3.64256000       3.64256000       5.01440000       44       0.00000000       0.00000000       0.00171467 
Ru       5.46384000       5.46384000       6.26800000       44      -0.00000051      -0.00000051      -0.00173035 
O       4.75776617       4.75776617       5.01440000        8      -2.10361925      -2.10361925      -0.10187542 
O       6.16991383       6.16991383       5.01440000        8       2.10361488       2.10361488      -0.10187979 
O       4.34863383       6.57904617       6.26800000        8       2.10364804      -2.10364830       0.10181037 
O       6.57904617       4.34863383       6.26800000        8      -2.10364830       2.10364804       0.10181037 
72
Lattice="7.735769692 0.0 0.0 0.0 7.735769692 0.0 0.0 0.0 8.0102195025" Properties=species:S:1:pos:R:3:dft_forces:R:3 pbc="T T T" structure_info=0.85bulk structure=bulk dft_energy=-82257.7527444
Ru       0.00000000       0.00000000       0.00000000       0.00000257       0.00000411       0.00003368 
Ru       1.93394242       1.93394242       1.33503658      -0.00000103      -0.00000489      -0.00002828 
O       1.18244980       1.18244980       0.00000000      -0.93040646      -0.93040851       0.00005579 
O       2.68543505       2.68543505       0.00000000       0.93039000       0.93038846       0.00005271 
O       0.75149262       3.11639222       1.33503658       0.93065560      -0.93065894       0.00000334 
O       3.11639222       0.75149262       1.33503658      -0.93066177       0.93066357      -0.00001697 
Ru       0.00000000       0.00000000       2.67007317       0.00000077      -0.00000103      -0.00002571 
Ru       1.93394242       1.93394242       4.00510975       0.00000797       0.00000848       0.00001286 
O       1.18244980       1.18244980       2.67007317      -0.93038975      -0.93038615      -0.00003780 
O       2.68543505       2.68543505       2.67007317       0.93038563       0.93038769      -0.00003548 
O       0.75149262       3.11639222       4.00510975       0.93062680      -0.93062474      -0.00001671 
O       3.11639222       0.75149262       4.00510975      -0.93063143       0.93062732       0.00000103 
Ru       0.00000000       0.00000000       5.34014634       0.00000874      -0.00000874      -0.00000694 
Ru       1.93394242       1.93394242       6.67518292       0.00000514       0.00000103       0.00001903 
O       1.18244980       1.18244980       5.34014634      -0.93042857      -0.93043217      -0.00001877 
O       2.68543505       2.68543505       5.34014634       0.93044759       0.93044580      -0.00001928 
O       0.75149262       3.11639222       6.67518292       0.93062037      -0.93061832       0.00001594 
O       3.11639222       0.75149262       6.67518292      -0.93060212       0.93060032       0.00001620 
Ru       0.00000000       3.86788485       0.00000000       0.00000771      -0.00000720      -0.00004859 
Ru       1.93394242       5.80182727       1.33503658      -0.00000051       0.00000154      -0.00000951 
O       1.18244980       5.05033465       0.00000000      -0.93041160      -0.93040851      -0.00008613 
O       2.68543505       6.55331989       0.00000000       0.93042188       0.93042677      -0.00009153 
O       0.75149262       6.98427707       1.33503658       0.93058489      -0.93058463      -0.00000463 
O       3.11639222       4.61937747       1.33503658      -0.93059466       0.93059569       0.00000257 
Ru       0.00000000       3.86788485       2.67007317      -0.00000746       0.00000694       0.00002417 
Ru       1.93394242       5.80182727       4.00510975       0.00000360      -0.00000231       0.00004525 
O       1.18244980       5.05033465       2.67007317      -0.93044091      -0.93044194       0.00004525 
O       2.68543505       6.55331989       2.67007317       0.93041906       0.93041674       0.00004474 
O       0.75149262       6.98427707       4.00510975       0.93062911      -0.93063477       0.00001928 
O       3.11639222       4.61937747       4.00510975      -0.93061652       0.93062372       0.00003240 
Ru       0.00000000       3.86788485       5.34014634       0.00000206       0.00000026       0.00002365 
Ru       1.93394242       5.80182727       6.67518292       0.00000874       0.00000951      -0.00002854 
O       1.18244980       5.05033465       5.34014634      -0.93036275      -0.93036738       0.00004577 
O       2.68543505       6.55331989       5.34014634       0.93037869       0.93037586       0.00004319 
O       0.75149262       6.98427707       6.67518292       0.93067411      -0.93067282      -0.00000951 
O       3.11639222       4.61937747       6.67518292      -0.93067257       0.93066665      -0.00003420 
Ru       3.86788485       0.00000000       0.00000000      -0.00000746       0.00000823      -0.00007071 
Ru       5.80182727       1.93394242       1.33503658       0.00000129      -0.00000231      -0.00001491 
O       5.05033465       1.18244980       0.00000000      -0.93041288      -0.93041623      -0.00006762 
O       6.55331989       2.68543505       0.00000000       0.93040723       0.93040337      -0.00006788 
O       4.61937747       3.11639222       1.33503658       0.93061446      -0.93061497       0.00000283 
O       6.98427707       0.75149262       1.33503658      -0.93059903       0.93060366      -0.00001208 
Ru       3.86788485       0.00000000       2.67007317       0.00000746      -0.00000514       0.00002314 
Ru       5.80182727       1.93394242       4.00510975      -0.00000026       0.00000154       0.00002057 
O       5.05033465       1.18244980       2.67007317      -0.93041983      -0.93041931       0.00002005 
O       6.55331989       2.68543505       2.67007317       0.93043345       0.93043088       0.00002005 
O       4.61937747       3.11639222       4.00510975       0.93061189      -0.93060829       0.00003394 
O       6.98427707       0.75149262       4.00510975      -0.93062500       0.93062243       0.00001337 
Ru       3.86788485       0.00000000       5.34014634      -0.00000180      -0.00000231       0.00004757 
Ru       5.80182727       1.93394242       6.67518292      -0.00001003      -0.00000720      -0.00000514 
O       5.05033465       1.18244980       5.34014634      -0.93039386      -0.93039000       0.00004551 
O       6.55331989       2.68543505       5.34014634       0.93038383       0.93038486       0.00004345 
O       4.61937747       3.11639222       6.67518292       0.93065843      -0.93066357      -0.00003240 
O       6.98427707       0.75149262       6.67518292      -0.93065997       0.93066820      -0.00001028 
Ru       3.86788485       3.86788485       0.00000000      -0.00000283      -0.00000257       0.00001517 
Ru       5.80182727       5.80182727       1.33503658       0.00000154       0.00000206       0.00000977 
O       5.05033465       5.05033465       0.00000000      -0.93040697      -0.93040337       0.00007302 
O       6.55331989       6.55331989       0.00000000       0.93042240       0.93042548       0.00007302 
O       4.61937747       6.98427707       1.33503658       0.93066074      -0.93065971      -0.00001723 
O       6.98427707       4.61937747       1.33503658      -0.93065945       0.93065714       0.00000874 
Ru       3.86788485       3.86788485       2.67007317       0.00000309       0.00000283      -0.00000026 
Ru       5.80182727       5.80182727       4.00510975      -0.00000848      -0.00000720      -0.00000874 
O       5.05033465       5.05033465       2.67007317      -0.93037843      -0.93037946      -0.00001928 
O       6.55331989       6.55331989       2.67007317       0.93037483       0.93037355      -0.00002185 
O       4.61937747       6.98427707       4.00510975       0.93064814      -0.93065225       0.00000154 
O       6.98427707       4.61937747       4.00510975      -0.93064454       0.93064917      -0.00002263 
Ru       3.86788485       3.86788485       5.34014634      -0.00001054       0.00000977      -0.00001928 
Ru       5.80182727       5.80182727       6.67518292      -0.00000643      -0.00000077      -0.00000334 
O       5.05033465       5.05033465       5.34014634      -0.93045197      -0.93044837      -0.00005065 
O       6.55331989       6.55331989       5.34014634       0.93043268       0.93043680      -0.00005039 
O       4.61937747       6.98427707       6.67518292       0.93057744      -0.93058078       0.00001311 
O       6.98427707       4.61937747       6.67518292      -0.93059209       0.93059749       0.00001234 
72
Lattice="8.190814968 0.0 0.0 0.0 8.190814968 0.0 0.0 0.0 8.481408885" Properties=species:S:1:pos:R:3:dft_forces:R:3 pbc="T T T" structure_info=0.90bulk structure=bulk dft_energy=-82396.8623567
Ru       0.00000000       0.00000000       0.00000000      -0.00000129      -0.00000771       0.00004088 
Ru       2.04770374       2.04770374       1.41356815      -0.00000977       0.00000077       0.00003188 
O       1.25200567       1.25200567       0.00000000      -0.50561210      -0.50561725       0.00000206 
O       2.84340181       2.84340181       0.00000000       0.50562419       0.50561750       0.00000129 
O       0.79569807       3.29970941       1.41356815       0.49995928      -0.49996313      -0.00002263 
O       3.29970941       0.79569807       1.41356815      -0.49996108       0.49996210      -0.00007585 
Ru       0.00000000       0.00000000       2.82713629       0.00000514      -0.00000951      -0.00000514 
Ru       2.04770374       2.04770374       4.24070444       0.00001851      -0.00000951       0.00001337 
O       1.25200567       1.25200567       2.82713629      -0.50558742      -0.50558048       0.00002957 
O       2.84340181       2.84340181       2.82713629       0.50558331       0.50558613       0.00002803 
O       0.79569807       3.29970941       4.24070444       0.50001147      -0.50001301      -0.00005656 
O       3.29970941       0.79569807       4.24070444      -0.50001198       0.50000813      -0.00004705 
Ru       0.00000000       0.00000000       5.65427259      -0.00000463       0.00001080      -0.00003471 
Ru       2.04770374       2.04770374       7.06784074      -0.00000977       0.00001106      -0.00004474 
O       1.25200567       1.25200567       5.65427259      -0.50559539      -0.50559308      -0.00002648 
O       2.84340181       2.84340181       5.65427259       0.50558665       0.50558845      -0.00003034 
O       0.79569807       3.29970941       7.06784074       0.49998910      -0.49998293       0.00007970 
O       3.29970941       0.79569807       7.06784074      -0.49998756       0.49998447       0.00012290 
Ru       0.00000000       4.09540748       0.00000000      -0.00000154       0.00000566      -0.00003394 
Ru       2.04770374       6.14311123       1.41356815      -0.00001183      -0.00000231       0.00003522 
O       1.25200567       5.34741315       0.00000000      -0.50560722      -0.50560979      -0.00004525 
O       2.84340181       6.93880930       0.00000000       0.50563601       0.50563421      -0.00004808 
O       0.79569807       7.39511690       1.41356815       0.49994822      -0.49994359      -0.00007096 
O       3.29970941       4.89110556       1.41356815      -0.49994745       0.49994693      -0.00008305 
Ru       0.00000000       4.09540748       2.82713629       0.00000180       0.00000848       0.00002520 
Ru       2.04770374       6.14311123       4.24070444       0.00001543       0.00000720      -0.00002700 
O       1.25200567       5.34741315       2.82713629      -0.50560670      -0.50560542       0.00007225 
O       2.84340181       6.93880930       2.82713629       0.50558819       0.50558871       0.00006453 
O       0.79569807       7.39511690       4.24070444       0.49999758      -0.49999784       0.00002443 
O       3.29970941       4.89110556       4.24070444      -0.49999141       0.49999321       0.00001311 
Ru       0.00000000       4.09540748       5.65427259      -0.00000026      -0.00001414       0.00000746 
Ru       2.04770374       6.14311123       7.06784074      -0.00001234      -0.00001106      -0.00000720 
O       1.25200567       5.34741315       5.65427259      -0.50556917      -0.50556531      -0.00002417 
O       2.84340181       6.93880930       5.65427259       0.50555322       0.50555425      -0.00002134 
O       0.79569807       7.39511690       7.06784074       0.49995568      -0.49995902       0.00004371 
O       3.29970941       4.89110556       7.06784074      -0.49996005       0.49995876       0.00006556 
Ru       4.09540748       0.00000000       0.00000000       0.00000360      -0.00000257      -0.00002417 
Ru       6.14311123       2.04770374       1.41356815       0.00001054       0.00000077       0.00002597 
O       5.34741315       1.25200567       0.00000000      -0.50563524      -0.50563139      -0.00001106 
O       6.93880930       2.84340181       0.00000000       0.50560670       0.50560927      -0.00001234 
O       4.89110556       3.29970941       1.41356815       0.49996699      -0.49996879      -0.00008022 
O       7.39511690       0.79569807       1.41356815      -0.49996673       0.49996750      -0.00006839 
Ru       4.09540748       0.00000000       2.82713629      -0.00000129      -0.00000360       0.00006633 
Ru       6.14311123       2.04770374       4.24070444      -0.00001825      -0.00000771       0.00000540 
O       5.34741315       1.25200567       2.82713629      -0.50558588      -0.50558356       0.00004474 
O       6.93880930       2.84340181       2.82713629       0.50560516       0.50560130       0.00004525 
O       4.89110556       3.29970941       4.24070444       0.49999270      -0.49999039       0.00001028 
O       7.39511690       0.79569807       4.24070444      -0.49999527       0.49999373       0.00002005 
Ru       4.09540748       0.00000000       5.65427259       0.00000257       0.00001723      -0.00004319 
Ru       6.14311123       2.04770374       7.06784074       0.00000951       0.00000977      -0.00003085 
O       5.34741315       1.25200567       5.65427259      -0.50555245      -0.50555605      -0.00002828 
O       6.93880930       2.84340181       5.65427259       0.50556479       0.50556377      -0.00003214 
O       4.89110556       3.29970941       7.06784074       0.49994719      -0.49994513       0.00006916 
O       7.39511690       0.79569807       7.06784074      -0.49994616       0.49994462       0.00004757 
Ru       4.09540748       4.09540748       0.00000000       0.00000154       0.00000617       0.00003060 
Ru       6.14311123       6.14311123       1.41356815       0.00001260      -0.00000129       0.00002803 
O       5.34741315       5.34741315       0.00000000      -0.50562496      -0.50561982      -0.00001825 
O       6.93880930       6.93880930       0.00000000       0.50561442       0.50561647      -0.00002083 
O       4.89110556       7.39511690       1.41356815       0.49994436      -0.49994231      -0.00007328 
O       7.39511690       4.89110556       1.41356815      -0.49994925       0.49994565      -0.00002443 
Ru       4.09540748       4.09540748       2.82713629      -0.00000514       0.00000951       0.00001363 
Ru       6.14311123       6.14311123       4.24070444      -0.00001697       0.00001028      -0.00000848 
O       5.34741315       5.34741315       2.82713629      -0.50558434      -0.50558665       0.00005039 
O       6.93880930       6.93880930       2.82713629       0.50558588       0.50558125       0.00005296 
O       4.89110556       7.39511690       4.24070444       0.50001713      -0.50001507      -0.00004499 
O       7.39511690       4.89110556       4.24070444      -0.50001610       0.50001713      -0.00005091 
Ru       4.09540748       4.09540748       5.65427259       0.00000206      -0.00001311      -0.00004577 
Ru       6.14311123       6.14311123       7.06784074       0.00001106      -0.00000848      -0.00002108 
O       5.34741315       5.34741315       5.65427259      -0.50558588      -0.50558999      -0.00003214 
O       6.93880930       6.93880930       5.65427259       0.50559616       0.50559411      -0.00003137 
O       4.89110556       7.39511690       7.06784074       0.49999039      -0.49999270       0.00011801 
O       7.39511690       4.89110556       7.06784074      -0.49998627       0.49998884       0.00007688 
72
Lattice="8.463838974888 0.0 0.0 0.0 8.463838974888 0.0 0.0 0.0 8.764119054039076" Properties=species:S:1:pos:R:3:Z:I:1:dft_forces:R:3 pbc="T T T" structure_info=0.93bulk structure=bulk dft_energy=-82441.0184158
Ru       0.00000000       0.00000000       0.00000000       44       0.00000000       0.00000000       0.00000000 
Ru       2.11596053       2.11596053       1.46068709       44       0.00004037       0.00004037       0.00007148 
O       1.29373919       1.29373919       0.00000000        8      -0.39581627      -0.39581627       0.00000000 
O       2.93818187       2.93818187       0.00000000        8       0.39573708       0.39573708       0.00000000 
O       0.82222134       3.40969973       1.46068709        8       0.39043186      -0.39042646      -0.00006376 
O       3.40969973       0.82222134       1.46068709        8      -0.39042646       0.39043186      -0.00006376 
Ru       0.00000000       0.00000000       2.92137417       44       0.00000000       0.00000000       0.00003574 
Ru       2.11596053       2.11596053       4.38206126       44       0.00003008       0.00003008       0.00000000 
O       1.29373919       1.29373919       2.92137417        8      -0.39582552      -0.39582552      -0.00012598 
O       2.93818187       2.93818187       2.92137417        8       0.39576973       0.39576973      -0.00013087 
O       0.82222134       3.40969973       4.38206126        8       0.39038918      -0.39040460       0.00000000 
O       3.40969973       0.82222134       4.38206126        8      -0.39040460       0.39038918       0.00000000 
Ru       0.00000000       0.00000000       5.84274834       44       0.00000000       0.00000000      -0.00003574 
Ru       2.11596053       2.11596053       7.30343543       44       0.00004037       0.00004037      -0.00007148 
O       1.29373919       1.29373919       5.84274834        8      -0.39582552      -0.39582552       0.00012598 
O       2.93818187       2.93818187       5.84274834        8       0.39576973       0.39576973       0.00013087 
O       0.82222134       3.40969973       7.30343543        8       0.39043186      -0.39042646       0.00006376 
O       3.40969973       0.82222134       7.30343543        8      -0.39042646       0.39043186       0.00006376 
Ru       0.00000000       4.23192107       0.00000000       44       0.00000000       0.00000000       0.00000000 
Ru       2.11596053       6.34788160       1.46068709       44       0.00001208      -0.00001208       0.00006865 
O       1.29373919       5.52566026       0.00000000        8      -0.39580958      -0.39581138       0.00000000 