1
Lattice="15.0 0.0 0.0 0.0 16.0 0.0 0.0 0.0 17.0" Properties=species:S:1:pos:R:3:dft_forces:R:3 pbc="T T T" structure_info=atom structure=atom dft_energy=-2561.49240893
Ru       0.00000000       0.00000000       0.00000000       0.00000000       0.00000000       0.00000000 
2
Lattice="2.735809629 -0.0 0.0 -1.367904814 2.369280638 0.0 0.0 0.0 4.313877055" Properties=species:S:1:pos:R:3:dft_forces:R:3 dft_energy=-5134.5392618090245 structure=bulk structure_info=hcp_bulk relative_energy=-5134.5392618090245 pbc="T T T"
Ru       1.36790483       0.78976020       1.07846926      -0.00000000      -0.00000000       0.00000000
Ru      -0.00000001       1.57952043       3.23540779       0.00000000       0.00000000      -0.00000000
36
Lattice="8.209161927 -0.0 0.0 -4.104580962 7.10934277 -0.0 0.0 0.0 8.625544405" Properties=species:S:1:pos:R:3:dft_forces:R:3 dft_energy=-92421.63761112676 structure=bulk structure_info=hcp_sbulk relative_energy=-92421.63761112676 pbc="T T T"
Ru       1.36819367       0.78992697       1.07817666      -0.00000000      -0.00000000      -0.00016352
Ru      -0.00000001       1.57985396       3.23456273      -0.00000000      -0.00000000      -0.00016327
Ru       1.36819367       0.78992697       5.39098168      -0.00000000      -0.00000000       0.00016327
Ru      -0.00000001       1.57985396       7.54736774      -0.00000000      -0.00000000       0.00016352
Ru       0.00000001       3.15970789       1.07817667       0.00000000       0.00000000      -0.00016352
Ru      -1.36819366       3.94963488       3.23456273      -0.00000026      -0.00000000      -0.00016327
Ru       0.00000001       3.15970789       5.39098168       0.00000000       0.00000000       0.00016327
Ru      -1.36819366       3.94963488       7.54736774      -0.00000026      -0.00000000       0.00016352
Ru      -1.36819364       5.52948882       1.07817667       0.00000000      -0.00000000      -0.00016352
Ru      -2.73638732       6.31941580       3.23456273      -0.00000000       0.00000000      -0.00016327
Ru      -1.36819364       5.52948882       5.39098168       0.00000000      -0.00000000       0.00016327
Ru      -2.73638732       6.31941580       7.54736774      -0.00000000       0.00000000       0.00016352
Ru       4.10458098       0.78992697       1.07817666      -0.00000000      -0.00000026      -0.00016352
Ru       2.73638729       1.57985396       3.23456273       0.00000000       0.00000000      -0.00016327
Ru       4.10458098       0.78992697       5.39098168      -0.00000000      -0.00000026       0.00016327
Ru       2.73638729       1.57985396       7.54736774       0.00000000       0.00000000       0.00016352
Ru       2.73638733       3.15970789       1.07817666      -0.00000026       0.00000000      -0.00016352
Ru       1.36819363       3.94963488       3.23456273       0.00000026      -0.00000000      -0.00016327
Ru       2.73638733       3.15970789       5.39098168      -0.00000026       0.00000000       0.00016327
Ru       1.36819363       3.94963488       7.54736774       0.00000026      -0.00000000       0.00016352
Ru       1.36819367       5.52948882       1.07817667      -0.00000000      -0.00000000      -0.00016352
Ru      -0.00000001       6.31941580       3.23456273       0.00000000       0.00000026      -0.00016327
Ru       1.36819367       5.52948882       5.39098168      -0.00000000      -0.00000000       0.00016327
Ru      -0.00000001       6.31941580       7.54736774       0.00000000       0.00000026       0.00016352
Ru       6.84096828       0.78992697       1.07817666       0.00000000      -0.00000000      -0.00016352
Ru       5.47277461       1.57985396       3.23456273      -0.00000000       0.00000000      -0.00016327
Ru       6.84096828       0.78992697       5.39098168       0.00000000      -0.00000000       0.00016327
Ru       5.47277461       1.57985396       7.54736774      -0.00000000       0.00000000       0.00016352
Ru       5.47277462       3.15970789       1.07817666       0.00000026       0.00000000      -0.00016352
Ru       4.10458095       3.94963488       3.23456273      -0.00000000      -0.00000000      -0.00016327
Ru       5.47277463       3.15970789       5.39098168       0.00000026       0.00000000       0.00016327
Ru       4.10458095       3.94963489       7.54736774      -0.00000000      -0.00000000       0.00016352
Ru       4.10458098       5.52948881       1.07817666       0.00000000       0.00000000      -0.00016352
Ru       2.73638729       6.31941580       3.23456273       0.00000000       0.00000000      -0.00016327
Ru       4.10458098       5.52948881       5.39098168       0.00000000       0.00000000       0.00016327
Ru       2.73638729       6.31941580       7.54736774       0.00000000       0.00000000       0.00016352
36
Lattice="6.565940372618 0.0 0.0 -3.282970186309 5.686268511196504 0.0 0.0 0.0 6.902201876920885" Properties=species:S:1:pos:R:3:dft_forces:R:3 dft_energy=-92046.93786042757 structure=bulk structure_info=bulk0.8 relative_energy=-92046.93786042757 pbc="T T T"
Ru       0.00000000       1.26361634       2.58832623      -0.00000000      -0.00000206       0.00000180
Ru       1.09432385       0.63180817       0.86277541      -0.00000180      -0.00000103      -0.00000000
Ru       0.00000000       1.26361634       6.03942787       0.00000000      -0.00000206       0.00000000
Ru       1.09432385       0.63180817       4.31387705      -0.00000180      -0.00000103      -0.00000180
Ru      -1.09432385       3.15904085       2.58832623      -0.00000051      -0.00000026       0.00000154
Ru       0.00000000       2.52723268       0.86277541       0.00000000      -0.00000129      -0.00000000
Ru      -1.09432385       3.15904085       6.03942787       0.00000077       0.00000051       0.00000077
Ru       0.00000000       2.52723268       4.31387705       0.00000000      -0.00000231      -0.00000000
Ru      -2.18864770       5.05446536       2.58832623      -0.00000180       0.00000103       0.00000180
Ru      -1.09432385       4.42265719       0.86277541      -0.00000129       0.00000077      -0.00000000
Ru      -2.18864770       5.05446536       6.03942787      -0.00000180       0.00000103       0.00000000
Ru      -1.09432385       4.42265719       4.31387705      -0.00000206       0.00000103      -0.00000000
Ru       2.18864770       1.26361634       2.58832623      -0.00000206      -0.00000103       0.00000000
Ru       3.28297156       0.63180817       0.86277541       0.00000000       0.00000103      -0.00000077
Ru       2.18864770       1.26361634       6.03942787      -0.00000129      -0.00000077       0.00000000
Ru       3.28297156       0.63180817       4.31387705       0.00000000      -0.00000051      -0.00000154
Ru       1.09432385       3.15904085       2.58832623       0.00000051      -0.00000026       0.00000154
Ru       2.18864770       2.52723268       0.86277541       0.00000077      -0.00000051      -0.00000077
Ru       1.09432385       3.15904085       6.03942787      -0.00000077       0.00000051       0.00000077
Ru       2.18864770       2.52723268       4.31387705      -0.00000051       0.00000026      -0.00000154
Ru       0.00000000       5.05446536       2.58832623       0.00000000       0.00000051       0.00000154
Ru       1.09432385       4.42265719       0.86277541       0.00000129       0.00000077      -0.00000000
Ru       0.00000000       5.05446536       6.03942787       0.00000000      -0.00000103       0.00000077
Ru       1.09432385       4.42265719       4.31387705       0.00000206       0.00000103      -0.00000000
Ru       4.37729541       1.26361634       2.58832623       0.00000206      -0.00000103       0.00000000
Ru       5.47161926       0.63180817       0.86277541       0.00000180      -0.00000103      -0.00000000
Ru       4.37729541       1.26361634       6.03942787       0.00000129      -0.00000077       0.00000000
Ru       5.47161926       0.63180817       4.31387705       0.00000180      -0.00000103      -0.00000180
Ru       3.28297156       3.15904085       2.58832623       0.00000000       0.00000231       0.00000000
Ru       4.37729541       2.52723268       0.86277541      -0.00000077      -0.00000051      -0.00000077
Ru       3.28297156       3.15904085       6.03942787      -0.00000000       0.00000129       0.00000000
Ru       4.37729541       2.52723268       4.31387705       0.00000051       0.00000026      -0.00000154
Ru       2.18864770       5.05446536       2.58832623       0.00000180       0.00000103       0.00000180
Ru       3.28297156       4.42265719       0.86277541      -0.00000000       0.00000206      -0.00000000
Ru       2.18864770       5.05446536       6.03942787       0.00000180       0.00000103       0.00000000
Ru       3.28297156       4.42265719       4.31387705      -0.00000000       0.00000206      -0.00000180
36
Lattice="6.976311844348 0.0 0.0 -3.488155922174 6.041660465001478 0.0 0.0 0.0 7.333589702832594" Properties=species:S:1:pos:R:3:dft_forces:R:3 dft_energy=-92250.75633877555 structure=bulk structure_info=bulk0.85 relative_energy=-92250.75633877555 pbc="T T T"
Ru       0.00000000       1.34259236       2.75009662       0.00000000      -0.00000077       0.00000051
Ru       1.16271909       0.67129618       0.91669887      -0.00000129      -0.00000077      -0.00000103
Ru       0.00000000       1.34259236       6.41689211       0.00000000      -0.00000129       0.00000103
Ru       1.16271909       0.67129618       4.58349437      -0.00000051      -0.00000026      -0.00000051
Ru      -1.16271909       3.35648091       2.75009662       0.00000026       0.00000026       0.00000103
Ru       0.00000000       2.68518472       0.91669887       0.00000000       0.00000051      -0.00000026
Ru      -1.16271909       3.35648091       6.41689211      -0.00000051      -0.00000026       0.00000026
Ru       0.00000000       2.68518472       4.58349437       0.00000000       0.00000103      -0.00000129
Ru      -2.32543819       5.37036945       2.75009662      -0.00000051       0.00000026       0.00000051
Ru      -1.16271909       4.69907327       0.91669887       0.00000026      -0.00000026      -0.00000026
Ru      -2.32543819       5.37036945       6.41689211      -0.00000129       0.00000077       0.00000103
Ru      -1.16271909       4.69907327       4.58349437       0.00000077      -0.00000051      -0.00000129
Ru       2.32543819       1.34259236       2.75009662       0.00000077       0.00000051       0.00000129
Ru       3.48815728       0.67129618       0.91669887       0.00000000      -0.00000051      -0.00000026
Ru       2.32543819       1.34259236       6.41689211       0.00000026       0.00000026       0.00000026
Ru       3.48815728       0.67129618       4.58349437      -0.00000000       0.00000051      -0.00000103
Ru       1.16271909       3.35648091       2.75009662      -0.00000026       0.00000026       0.00000103
Ru       2.32543819       2.68518472       0.91669887      -0.00000051       0.00000026      -0.00000026
Ru       1.16271909       3.35648091       6.41689211       0.00000051      -0.00000026       0.00000026
Ru       2.32543819       2.68518472       4.58349437       0.00000026      -0.00000026      -0.00000103
Ru       0.00000000       5.37036945       2.75009662       0.00000000      -0.00000051       0.00000103
Ru       1.16271909       4.69907327       0.91669887      -0.00000026      -0.00000026      -0.00000026
Ru       0.00000000       5.37036945       6.41689211      -0.00000000       0.00000051       0.00000026
Ru       1.16271909       4.69907327       4.58349437      -0.00000077      -0.00000051      -0.00000129
Ru       4.65087637       1.34259236       2.75009662      -0.00000077       0.00000051       0.00000129
Ru       5.81359546       0.67129618       0.91669887       0.00000129      -0.00000077      -0.00000103
Ru       4.65087637       1.34259236       6.41689211      -0.00000026       0.00000026       0.00000026
Ru       5.81359546       0.67129618       4.58349437       0.00000051      -0.00000026      -0.00000051
Ru       3.48815728       3.35648091       2.75009662      -0.00000000      -0.00000103       0.00000129
Ru       4.65087637       2.68518472       0.91669887       0.00000051       0.00000026      -0.00000026
Ru       3.48815728       3.35648091       6.41689211       0.00000000      -0.00000051       0.00000026
Ru       4.65087637       2.68518472       4.58349437      -0.00000026      -0.00000026      -0.00000103
Ru       2.32543819       5.37036945       2.75009662       0.00000051       0.00000026       0.00000051
Ru       3.48815728       4.69907327       0.91669887       0.00000000       0.00000129      -0.00000103
Ru       2.32543819       5.37036945       6.41689211       0.00000129       0.00000077       0.00000103
Ru       3.48815728       4.69907327       4.58349437       0.00000000       0.00000077      -0.00000051
36
Lattice="7.386683316078 0.0 0.0 -3.693341658039 6.39705241880645 0.0 0.0 0.0 7.764977528744303" Properties=species:S:1:pos:R:3:dft_forces:R:3 dft_energy=-92359.78391760997 structure=bulk structure_info=bulk0.9 relative_energy=-92359.78391760997 pbc="T T T"
Ru       0.00000000       1.42156838       2.91186701       0.00000000      -0.00031676      -0.00000489
Ru       1.23111433       0.71078419       0.97062234      -0.00027794      -0.00016044      -0.00000643
Ru       0.00000000       1.42156838       6.79435635       0.00000000      -0.00032087       0.00000643
Ru       1.23111433       0.71078419       4.85311168      -0.00027434      -0.00015838       0.00000489
Ru      -1.23111433       3.55392096       2.91186701      -0.00006505      -0.00003754       0.00000077
Ru       0.00000000       2.84313677       0.97062234       0.00000000      -0.00024066      -0.00000514
Ru      -1.23111433       3.55392096       6.79435635      -0.00006376      -0.00003677       0.00000103
Ru       0.00000000       2.84313677       4.85311168       0.00000000      -0.00023526       0.00000386
Ru      -2.46222867       5.68627353       2.91186701      -0.00027434       0.00015838      -0.00000489
Ru      -1.23111433       4.97548934       0.97062234      -0.00020852       0.00012033      -0.00000514
Ru      -2.46222867       5.68627353       6.79435635      -0.00027794       0.00016044       0.00000643
Ru      -1.23111433       4.97548934       4.85311168      -0.00020389       0.00011776       0.00000386
Ru       2.46222867       1.42156838       2.91186701      -0.00020389      -0.00011776      -0.00000386
Ru       3.69334300       0.71078419       0.97062234       0.00000000      -0.00007353      -0.00000103
Ru       2.46222867       1.42156838       6.79435635      -0.00020852      -0.00012033       0.00000514
Ru       3.69334300       0.71078419       4.85311168       0.00000000      -0.00007508      -0.00000077
Ru       1.23111433       3.55392096       2.91186701       0.00006505      -0.00003754       0.00000077
Ru       2.46222867       2.84313677       0.97062234      -0.00006376       0.00003677      -0.00000103
Ru       1.23111433       3.55392096       6.79435635       0.00006376      -0.00003677       0.00000103
Ru       2.46222867       2.84313677       4.85311168      -0.00006505       0.00003754      -0.00000077
Ru       0.00000000       5.68627353       2.91186701      -0.00000000       0.00007508       0.00000077
Ru       1.23111433       4.97548934       0.97062234       0.00020852       0.00012033      -0.00000514
Ru       0.00000000       5.68627353       6.79435635      -0.00000000       0.00007353       0.00000103
Ru       1.23111433       4.97548934       4.85311168       0.00020389       0.00011776       0.00000386
Ru       4.92445733       1.42156838       2.91186701       0.00020389      -0.00011776      -0.00000386
Ru       6.15557167       0.71078419       0.97062234       0.00027794      -0.00016044      -0.00000643
Ru       4.92445733       1.42156838       6.79435635       0.00020852      -0.00012033       0.00000514
Ru       6.15557167       0.71078419       4.85311168       0.00027434      -0.00015838       0.00000489
Ru       3.69334300       3.55392096       2.91186701      -0.00000000       0.00023526      -0.00000386
Ru       4.92445733       2.84313677       0.97062234       0.00006376       0.00003677      -0.00000103
Ru       3.69334300       3.55392096       6.79435635      -0.00000000       0.00024066       0.00000514
Ru       4.92445733       2.84313677       4.85311168       0.00006505       0.00003754      -0.00000077
Ru       2.46222867       5.68627353       2.91186701       0.00027434       0.00015838      -0.00000489
Ru       3.69334300       4.97548934       0.97062234       0.00000000       0.00032087      -0.00000643
Ru       2.46222867       5.68627353       6.79435635       0.00027794       0.00016044       0.00000643
Ru       3.69334300       4.97548934       4.85311168       0.00000000       0.00031676       0.00000489
36
Lattice="7.632905669938999 0.0 0.0 -3.8164528349694997 6.610287132808923 0.0 0.0 0.0 8.023809668013586" Properties=species:S:1:pos:R:3:dft_forces:R:3 dft_energy=-92394.78023566681 structure=bulk structure_info=bulk0.93 relative_energy=-92394.78023566681 pbc="T T T"
Ru       0.00000000       1.46895400       3.00892924       0.00000000      -0.00002828       0.00000977
Ru       1.27215148       0.73447700       1.00297641      -0.00002263      -0.00001311       0.00000668
Ru       0.00000000       1.46895400       7.02083490       0.00000000      -0.00002623      -0.00000668
Ru       1.27215148       0.73447700       5.01488207      -0.00002443      -0.00001414      -0.00000977
Ru      -1.27215148       3.67238499       3.00892924       0.00002057       0.00001183      -0.00000694
Ru       0.00000000       2.93790799       1.00297641       0.00000000      -0.00001954       0.00002905
Ru      -1.27215148       3.67238499       7.02083490      -0.00000694      -0.00000411       0.00000951
Ru       0.00000000       2.93790799       5.01488207       0.00000000      -0.00005194      -0.00003162
Ru      -2.54430296       5.87581599       3.00892924      -0.00002443       0.00001414       0.00000977
Ru      -1.27215148       5.14133899       1.00297641      -0.00001671       0.00000977       0.00002905
Ru      -2.54430296       5.87581599       7.02083490      -0.00002263       0.00001311      -0.00000668
Ru      -1.27215148       5.14133899       5.01488207      -0.00004499       0.00002597      -0.00003162
Ru       2.54430296       1.46895400       3.00892924      -0.00004499      -0.00002597       0.00003162
Ru       3.81645443       0.73447700       1.00297641       0.00000000      -0.00000797      -0.00000951
Ru       2.54430296       1.46895400       7.02083490      -0.00001671      -0.00000977      -0.00002905
Ru       3.81645443       0.73447700       5.01488207      -0.00000000       0.00002365       0.00000694
Ru       1.27215148       3.67238499       3.00892924      -0.00002057       0.00001183      -0.00000694
Ru       2.54430296       2.93790799       1.00297641      -0.00000694       0.00000411      -0.00000951
Ru       1.27215148       3.67238499       7.02083490       0.00000694      -0.00000411       0.00000951
Ru       2.54430296       2.93790799       5.01488207       0.00002057      -0.00001183       0.00000694
Ru       0.00000000       5.87581599       3.00892924       0.00000000      -0.00002365      -0.00000694
Ru       1.27215148       5.14133899       1.00297641       0.00001671       0.00000977       0.00002905
Ru       0.00000000       5.87581599       7.02083490       0.00000000       0.00000797       0.00000951
Ru       1.27215148       5.14133899       5.01488207       0.00004499       0.00002597      -0.00003162
Ru       5.08860591       1.46895400       3.00892924       0.00004499      -0.00002597       0.00003162
Ru       6.36075739       0.73447700       1.00297641       0.00002263      -0.00001311       0.00000668
Ru       5.08860591       1.46895400       7.02083490       0.00001671      -0.00000977      -0.00002905
Ru       6.36075739       0.73447700       5.01488207       0.00002443      -0.00001414      -0.00000977
Ru       3.81645443       3.67238499       3.00892924      -0.00000000       0.00005194       0.00003162
Ru       5.08860591       2.93790799       1.00297641       0.00000694       0.00000411      -0.00000951
Ru       3.81645443       3.67238499       7.02083490       0.00000000       0.00001954      -0.00002905
Ru       5.08860591       2.93790799       5.01488207      -0.00002057      -0.00001183       0.00000694
Ru       2.54430296       5.87581599       3.00892924       0.00002443       0.00001414       0.00000977
Ru       3.81645443       5.14133899       1.00297641      -0.00000000       0.00002623       0.00000668
Ru       2.54430296       5.87581599       7.02083490       0.00002263       0.00001311      -0.00000668
Ru       3.81645443       5.14133899       5.01488207      -0.00000000       0.00002828      -0.00000977
36
Lattice="7.797054258631 0.0 0.0 -3.8985271293155 6.752443914330912 0.0 0.0 0.0 8.19636479837827" Properties=species:S:1:pos:R:3:dft_forces:R:3 dft_energy=-92408.97075588821 structure=bulk structure_info=bulk0.95 relative_energy=-92408.97075588821 pbc="T T T"
Ru       0.00000000       1.50054441       3.07363740       0.00000000       0.00006248      -0.00002725
Ru       1.29950957       0.75027220       1.02454580       0.00007790       0.00004499      -0.00002623
Ru       0.00000000       1.50054441       7.17182060       0.00000000       0.00008973       0.00002623
Ru       1.29950957       0.75027220       5.12272900       0.00005425       0.00003137       0.00002725
Ru      -1.29950957       3.75136101       3.07363740      -0.00000309      -0.00000180      -0.00008947
Ru       0.00000000       3.00108881       1.02454580      -0.00000000       0.00015067       0.00000591
Ru      -1.29950957       3.75136101       7.17182060      -0.00005399      -0.00003137       0.00008870
Ru       0.00000000       3.00108881       5.12272900      -0.00000000       0.00006145      -0.00000694
Ru      -2.59901915       6.00217762       3.07363740       0.00005425      -0.00003137      -0.00002725
Ru      -1.29950957       5.25190542       1.02454580       0.00013036      -0.00007533       0.00000591
Ru      -2.59901915       6.00217762       7.17182060       0.00007790      -0.00004499       0.00002623
Ru      -1.29950957       5.25190542       5.12272900       0.00005322      -0.00003060      -0.00000694
Ru       2.59901915       1.50054441       3.07363740       0.00005322       0.00003060       0.00000694
Ru       3.89852872       0.75027220       1.02454580       0.00000000      -0.00006248      -0.00008870
Ru       2.59901915       1.50054441       7.17182060       0.00013036       0.00007533      -0.00000591
Ru       3.89852872       0.75027220       5.12272900       0.00000000      -0.00000334       0.00008947
Ru       1.29950957       3.75136101       3.07363740       0.00000309      -0.00000180      -0.00008947
Ru       2.59901915       3.00108881       1.02454580      -0.00005399       0.00003137      -0.00008870
Ru       1.29950957       3.75136101       7.17182060       0.00005399      -0.00003137       0.00008870
Ru       2.59901915       3.00108881       5.12272900      -0.00000309       0.00000180       0.00008947
Ru       0.00000000       6.00217762       3.07363740       0.00000000       0.00000334      -0.00008947
Ru       1.29950957       5.25190542       1.02454580      -0.00013036      -0.00007533       0.00000591
Ru       0.00000000       6.00217762       7.17182060       0.00000000       0.00006248       0.00008870
Ru       1.29950957       5.25190542       5.12272900      -0.00005322      -0.00003060      -0.00000694
Ru       5.19803830       1.50054441       3.07363740      -0.00005322       0.00003060       0.00000694
Ru       6.49754787       0.75027220       1.02454580      -0.00007790       0.00004499      -0.00002623
Ru       5.19803830       1.50054441       7.17182060      -0.00013036       0.00007533      -0.00000591
Ru       6.49754787       0.75027220       5.12272900      -0.00005425       0.00003137       0.00002725
Ru       3.89852872       3.75136101       3.07363740       0.00000000      -0.00006145       0.00000694
Ru       5.19803830       3.00108881       1.02454580       0.00005399       0.00003137      -0.00008870
Ru       3.89852872       3.75136101       7.17182060       0.00000000      -0.00015067      -0.00000591
Ru       5.19803830       3.00108881       5.12272900       0.00000309       0.00000180       0.00008947
Ru       2.59901915       6.00217762       3.07363740      -0.00005425      -0.00003137      -0.00002725
Ru       3.89852872       5.25190542       1.02454580       0.00000000      -0.00008973      -0.00002623
Ru       2.59901915       6.00217762       7.17182060      -0.00007790      -0.00004499       0.00002623
Ru       3.89852872       5.25190542       5.12272900      -0.00000000      -0.00006248       0.00002725
36
Lattice="7.961202847323 0.0 0.0 -3.9806014236615 6.894600695852901 0.0 0.0 0.0 8.368919928742953" Properties=species:S:1:pos:R:3:dft_forces:R:3 dft_energy=-92417.4202720813 structure=bulk structure_info=bulk0.97 relative_energy=-92417.4202720813 pbc="T T T"
Ru       0.00000000       1.53213481       3.13834555       0.00000000       0.00011930      -0.00001286
Ru       1.32686767       0.76606741       1.04611518       0.00011004       0.00006351      -0.00001466
Ru       0.00000000       1.53213481       7.32280629      -0.00000000       0.00012727       0.00001466
Ru       1.32686767       0.76606741       5.23057592       0.00010336       0.00005965       0.00001286
Ru      -1.32686767       3.83033703       3.13834555      -0.00004577      -0.00002648      -0.00002340
Ru       0.00000000       3.06426963       1.04611518      -0.00000000       0.00019052      -0.00000694
Ru      -1.32686767       3.83033703       7.32280629      -0.00005296      -0.00003060       0.00002725
Ru       0.00000000       3.06426963       5.23057592       0.00000000       0.00017406       0.00000591
Ru      -2.65373534       6.12853925       3.13834555       0.00010336      -0.00005965      -0.00001286
Ru      -1.32686767       5.36247185       1.04611518       0.00016481      -0.00009513      -0.00000694
Ru      -2.65373534       6.12853925       7.32280629       0.00011004      -0.00006351       0.00001466
Ru      -1.32686767       5.36247185       5.23057592       0.00015067      -0.00008690       0.00000591
Ru       2.65373534       1.53213481       3.13834555       0.00015067       0.00008690      -0.00000591
Ru       3.98060301       0.76606741       1.04611518       0.00000000      -0.00006094      -0.00002725
Ru       2.65373534       1.53213481       7.32280629       0.00016481       0.00009513       0.00000694
Ru       3.98060301       0.76606741       5.23057592       0.00000000      -0.00005271       0.00002340
Ru       1.32686767       3.83033703       3.13834555       0.00004577      -0.00002648      -0.00002340
Ru       2.65373534       3.06426963       1.04611518      -0.00005296       0.00003060      -0.00002725
Ru       1.32686767       3.83033703       7.32280629       0.00005296      -0.00003060       0.00002725
Ru       2.65373534       3.06426963       5.23057592      -0.00004577       0.00002648       0.00002340
Ru       0.00000000       6.12853925       3.13834555       0.00000000       0.00005271      -0.00002340
Ru       1.32686767       5.36247185       1.04611518      -0.00016481      -0.00009513      -0.00000694
Ru       0.00000000       6.12853925       7.32280629      -0.00000000       0.00006094       0.00002725
Ru       1.32686767       5.36247185       5.23057592      -0.00015067      -0.00008690       0.00000591
Ru       5.30747068       1.53213481       3.13834555      -0.00015067       0.00008690      -0.00000591
Ru       6.63433835       0.76606741       1.04611518      -0.00011004       0.00006351      -0.00001466
Ru       5.30747068       1.53213481       7.32280629      -0.00016481       0.00009513       0.00000694
Ru       6.63433835       0.76606741       5.23057592      -0.00010336       0.00005965       0.00001286
Ru       3.98060301       3.83033703       3.13834555       0.00000000      -0.00017406      -0.00000591
Ru       5.30747068       3.06426963       1.04611518       0.00005296       0.00003060      -0.00002725
Ru       3.98060301       3.83033703       7.32280629      -0.00000000      -0.00019052       0.00000694
Ru       5.30747068       3.06426963       5.23057592       0.00004577       0.00002648       0.00002340
Ru       2.65373534       6.12853925       3.13834555      -0.00010336      -0.00005965      -0.00001286
Ru       3.98060301       5.36247185       1.04611518       0.00000000      -0.00012727      -0.00001466
Ru       2.65373534       6.12853925       7.32280629      -0.00011004      -0.00006351       0.00001466
Ru       3.98060301       5.36247185       5.23057592       0.00000000      -0.00011930       0.00001286
36
Lattice="8.453648613399 0.0 0.0 -4.2268243066995 7.32107104041887 0.0 0.0 0.0 8.886585319837003" Properties=species:S:1:pos:R:3:dft_forces:R:3 dft_energy=-92418.33123193527 structure=bulk structure_info=bulk1.03 relative_energy=-92418.33123193527 pbc="T T T"
Ru       0.00000000       1.62690604       3.33247002       0.00000000       0.00008279      -0.00054302
Ru       1.40894196       0.81345302       1.11082334       0.00004294       0.00002494      -0.00053762
Ru       0.00000000       1.62690604       7.77576338       0.00000000       0.00004962       0.00053762
Ru       1.40894196       0.81345302       5.55411670       0.00007173       0.00004139       0.00054302
Ru      -1.40894196       4.06726510       3.33247002      -0.00000591      -0.00000334      -0.00051268
Ru       0.00000000       3.25381208       1.11082334       0.00000000       0.00011930      -0.00047000